[Molden Format]
[FREQ]
    0.00
    0.00
    0.00
  584.40
  584.40
  584.40
[FR-COORD]
   Si          0.00000        0.00000        0.00000
   Si          2.56530        2.56530        2.56530
[FR-NORM-COORD]
 vibration     1
   0.13370  -0.17136   0.67287
   0.13370  -0.17136   0.67287
 vibration     2
  -0.41975   0.52590   0.21734
  -0.41975   0.52590   0.21734
 vibration     3
  -0.55311  -0.44053  -0.00229
  -0.55311  -0.44053  -0.00229
 vibration     4
   0.00000   0.00000  -0.70711
   0.00000  -0.00000   0.70711
 vibration     5
  -0.67082  -0.22361  -0.00000
   0.67082   0.22361  -0.00000
 vibration     6
   0.22361  -0.67082   0.00000
  -0.22361   0.67082   0.00000
