
     Program PROJWFC v.7.2 starts on 17Jul2024 at  5:10:47 

     This program is part of the open-source Quantum ESPRESSO suite
     for quantum simulation of materials; please cite
         "P. Giannozzi et al., J. Phys.:Condens. Matter 21 395502 (2009);
         "P. Giannozzi et al., J. Phys.:Condens. Matter 29 465901 (2017);
         "P. Giannozzi et al., J. Chem. Phys. 152 154105 (2020);
          URL http://www.quantum-espresso.org", 
     in publications or presentations arising from this work. More details at
     http://www.quantum-espresso.org/quote

     Parallel version (MPI), running on     1 processors

     MPI processes distributed on     1 nodes
     28141 MiB available memory on the printing compute node when the environment starts
 

     Reading xml data from directory:

     ./tmp/struct.save/

     IMPORTANT: XC functional enforced from input :
     Exchange-correlation= PBE
                           (   1   4   3   4   0   0   0)
     Any further DFT definition will be discarded
     Please, verify this is what you really want

 
     G-vector sticks info
     --------------------
     sticks:   dense  smooth     PW     G-vecs:    dense   smooth      PW
     Sum         295     295     91                 3287     3287     609
 
     Using Pencil Decomposition
 

     Gaussian broadening (default values): ngauss,degauss=   0    0.000735


     Calling projwave .... 
     Subspace diagonalization in iterative solution of the eigenvalue problem:
     a serial algorithm will be used

 
  Problem Sizes 
  natomwfc =             8
  nbnd     =            14
  nkstot   =           100
  npwx     =           420
  nkb      =            16
 

     Atomic states used for projection
     (read from pseudopotential files):

     state #   1: atom   1 (Si ), wfc  1 (l=0 m= 1)
     state #   2: atom   1 (Si ), wfc  2 (l=1 m= 1)
     state #   3: atom   1 (Si ), wfc  2 (l=1 m= 2)
     state #   4: atom   1 (Si ), wfc  2 (l=1 m= 3)
     state #   5: atom   2 (Si ), wfc  1 (l=0 m= 1)
     state #   6: atom   2 (Si ), wfc  2 (l=1 m= 1)
     state #   7: atom   2 (Si ), wfc  2 (l=1 m= 2)
     state #   8: atom   2 (Si ), wfc  2 (l=1 m= 3)

 k =   0.3535533906  0.3535533906  0.3535533906
==== e(   1) =    -3.13810 eV ==== 
     psi = 0.383*[#   1]+0.383*[#   5]+0.039*[#   2]+0.039*[#   3]+0.039*[#   4]
          +0.039*[#   6]+0.039*[#   7]+0.039*[#   8]
    |psi|^2 = 0.997
==== e(   2) =    -0.50924 eV ==== 
     psi = 0.127*[#   2]+0.127*[#   3]+0.127*[#   4]+0.127*[#   6]+0.127*[#   7]
          +0.127*[#   8]+0.113*[#   1]+0.113*[#   5]
    |psi|^2 = 0.987
==== e(   3) =     5.31137 eV ==== 
     psi = 0.165*[#   2]+0.165*[#   3]+0.165*[#   4]+0.165*[#   6]+0.165*[#   7]
          +0.165*[#   8]
    |psi|^2 = 0.989
==== e(   4) =     5.31137 eV ==== 
     psi = 0.165*[#   2]+0.165*[#   3]+0.165*[#   4]+0.165*[#   6]+0.165*[#   7]
          +0.165*[#   8]
    |psi|^2 = 0.989
==== e(   5) =     8.03725 eV ==== 
     psi = 0.347*[#   1]+0.347*[#   5]+0.038*[#   2]+0.038*[#   3]+0.038*[#   4]
          +0.038*[#   6]+0.038*[#   7]+0.038*[#   8]
    |psi|^2 = 0.921
==== e(   6) =     9.76673 eV ==== 
     psi = 0.128*[#   2]+0.128*[#   3]+0.128*[#   4]+0.128*[#   6]+0.128*[#   7]
          +0.128*[#   8]
    |psi|^2 = 0.765
==== e(   7) =     9.76673 eV ==== 
     psi = 0.128*[#   2]+0.128*[#   3]+0.128*[#   4]+0.128*[#   6]+0.128*[#   7]
          +0.128*[#   8]
    |psi|^2 = 0.765
==== e(   8) =    14.17630 eV ==== 
     psi = 0.023*[#   2]+0.023*[#   3]+0.023*[#   4]+0.023*[#   6]+0.023*[#   7]
          +0.023*[#   8]+0.019*[#   1]+0.019*[#   5]
    |psi|^2 = 0.174
==== e(   9) =    17.10490 eV ==== 
 
    |psi|^2 = 0.005
==== e(  10) =    17.10490 eV ==== 
 
    |psi|^2 = 0.005
==== e(  11) =    17.82758 eV ==== 
     psi = 0.032*[#   2]+0.032*[#   3]+0.032*[#   4]+0.032*[#   6]+0.032*[#   7]
          +0.032*[#   8]
    |psi|^2 = 0.192
==== e(  12) =    17.82758 eV ==== 
     psi = 0.032*[#   2]+0.032*[#   3]+0.032*[#   4]+0.032*[#   6]+0.032*[#   7]
          +0.032*[#   8]
    |psi|^2 = 0.192
==== e(  13) =    17.94337 eV ==== 
     psi = 0.030*[#   1]+0.030*[#   5]
    |psi|^2 = 0.061
==== e(  14) =    19.52849 eV ==== 
     psi = 0.101*[#   2]+0.101*[#   3]+0.101*[#   4]+0.101*[#   6]+0.101*[#   7]
          +0.101*[#   8]+0.092*[#   1]+0.092*[#   5]
    |psi|^2 = 0.792

 k =   0.3327561323  0.3327561323  0.3327561323
==== e(   1) =    -3.18784 eV ==== 
     psi = 0.379*[#   1]+0.379*[#   5]+0.040*[#   2]+0.040*[#   3]+0.040*[#   4]
          +0.040*[#   6]+0.040*[#   7]+0.040*[#   8]
    |psi|^2 = 0.997
==== e(   2) =    -0.43794 eV ==== 
     psi = 0.126*[#   2]+0.126*[#   3]+0.126*[#   4]+0.126*[#   6]+0.126*[#   7]
          +0.126*[#   8]+0.117*[#   1]+0.117*[#   5]
    |psi|^2 = 0.988
==== e(   3) =     5.31765 eV ==== 
     psi = 0.165*[#   2]+0.165*[#   3]+0.165*[#   4]+0.165*[#   6]+0.165*[#   7]
          +0.165*[#   8]
    |psi|^2 = 0.989
==== e(   4) =     5.31765 eV ==== 
     psi = 0.165*[#   2]+0.165*[#   3]+0.165*[#   4]+0.165*[#   6]+0.165*[#   7]
          +0.165*[#   8]
    |psi|^2 = 0.989
==== e(   5) =     8.04431 eV ==== 
     psi = 0.346*[#   1]+0.346*[#   5]+0.038*[#   2]+0.038*[#   3]+0.038*[#   4]
          +0.038*[#   6]+0.038*[#   7]+0.038*[#   8]
    |psi|^2 = 0.922
==== e(   6) =     9.77425 eV ==== 
     psi = 0.128*[#   2]+0.128*[#   3]+0.128*[#   4]+0.128*[#   6]+0.128*[#   7]
          +0.128*[#   8]
    |psi|^2 = 0.766
==== e(   7) =     9.77425 eV ==== 
     psi = 0.128*[#   2]+0.128*[#   3]+0.128*[#   4]+0.128*[#   6]+0.128*[#   7]
          +0.128*[#   8]
    |psi|^2 = 0.766
==== e(   8) =    14.18761 eV ==== 
     psi = 0.023*[#   2]+0.023*[#   3]+0.023*[#   4]+0.023*[#   6]+0.023*[#   7]
          +0.023*[#   8]+0.020*[#   1]+0.020*[#   5]
    |psi|^2 = 0.177
==== e(   9) =    16.75746 eV ==== 
     psi = 0.010*[#   2]+0.010*[#   3]+0.010*[#   4]+0.010*[#   6]+0.010*[#   7]
          +0.010*[#   8]
    |psi|^2 = 0.058
==== e(  10) =    16.75746 eV ==== 
     psi = 0.010*[#   2]+0.010*[#   3]+0.010*[#   4]+0.010*[#   6]+0.010*[#   7]
          +0.010*[#   8]
    |psi|^2 = 0.058
==== e(  11) =    17.75502 eV ==== 
     psi = 0.042*[#   1]+0.042*[#   5]+0.012*[#   2]+0.012*[#   3]+0.012*[#   4]
          +0.012*[#   6]+0.012*[#   7]+0.012*[#   8]
    |psi|^2 = 0.159
==== e(  12) =    18.20166 eV ==== 
     psi = 0.023*[#   2]+0.023*[#   3]+0.023*[#   4]+0.023*[#   6]+0.023*[#   7]
          +0.023*[#   8]
    |psi|^2 = 0.138
==== e(  13) =    18.20166 eV ==== 
     psi = 0.023*[#   2]+0.023*[#   3]+0.023*[#   4]+0.023*[#   6]+0.023*[#   7]
          +0.023*[#   8]
    |psi|^2 = 0.138
==== e(  14) =    19.70683 eV ==== 
     psi = 0.088*[#   2]+0.088*[#   3]+0.088*[#   4]+0.088*[#   6]+0.088*[#   7]
          +0.088*[#   8]+0.080*[#   1]+0.080*[#   5]
    |psi|^2 = 0.691

 k =   0.3119588741  0.3119588741  0.3119588741
==== e(   1) =    -3.32239 eV ==== 
     psi = 0.370*[#   1]+0.370*[#   5]+0.043*[#   2]+0.043*[#   3]+0.043*[#   4]
          +0.043*[#   6]+0.043*[#   7]+0.043*[#   8]
    |psi|^2 = 0.996
==== e(   2) =    -0.23876 eV ==== 
     psi = 0.126*[#   1]+0.126*[#   5]+0.123*[#   2]+0.123*[#   3]+0.123*[#   4]
          +0.123*[#   6]+0.123*[#   7]+0.123*[#   8]
    |psi|^2 = 0.988
==== e(   3) =     5.33674 eV ==== 
     psi = 0.165*[#   2]+0.165*[#   3]+0.165*[#   4]+0.165*[#   6]+0.165*[#   7]
          +0.165*[#   8]
    |psi|^2 = 0.989
==== e(   4) =     5.33674 eV ==== 
     psi = 0.165*[#   2]+0.165*[#   3]+0.165*[#   4]+0.165*[#   6]+0.165*[#   7]
          +0.165*[#   8]
    |psi|^2 = 0.989
==== e(   5) =     8.06117 eV ==== 
     psi = 0.342*[#   1]+0.342*[#   5]+0.040*[#   2]+0.040*[#   3]+0.040*[#   4]
          +0.040*[#   6]+0.040*[#   7]+0.040*[#   8]
    |psi|^2 = 0.923
==== e(   6) =     9.79619 eV ==== 
     psi = 0.128*[#   2]+0.128*[#   3]+0.128*[#   4]+0.128*[#   6]+0.128*[#   7]
          +0.128*[#   8]
    |psi|^2 = 0.769
==== e(   7) =     9.79619 eV ==== 
     psi = 0.128*[#   2]+0.128*[#   3]+0.128*[#   4]+0.128*[#   6]+0.128*[#   7]
          +0.128*[#   8]
    |psi|^2 = 0.769
==== e(   8) =    14.22009 eV ==== 
     psi = 0.025*[#   2]+0.025*[#   3]+0.025*[#   4]+0.025*[#   6]+0.025*[#   7]
          +0.025*[#   8]+0.021*[#   1]+0.021*[#   5]
    |psi|^2 = 0.189
==== e(   9) =    16.22710 eV ==== 
     psi = 0.014*[#   2]+0.014*[#   3]+0.014*[#   4]+0.014*[#   6]+0.014*[#   7]
          +0.014*[#   8]
    |psi|^2 = 0.086
==== e(  10) =    16.22710 eV ==== 
     psi = 0.014*[#   2]+0.014*[#   3]+0.014*[#   4]+0.014*[#   6]+0.014*[#   7]
          +0.014*[#   8]
    |psi|^2 = 0.086
==== e(  11) =    17.33672 eV ==== 
     psi = 0.061*[#   1]+0.061*[#   5]+0.029*[#   2]+0.029*[#   3]+0.029*[#   4]
          +0.029*[#   6]+0.029*[#   7]+0.029*[#   8]
    |psi|^2 = 0.292
==== e(  12) =    18.81879 eV ==== 
     psi = 0.018*[#   2]+0.018*[#   3]+0.018*[#   4]+0.018*[#   6]+0.018*[#   7]
          +0.018*[#   8]
    |psi|^2 = 0.107
==== e(  13) =    18.81879 eV ==== 
     psi = 0.018*[#   2]+0.018*[#   3]+0.018*[#   4]+0.018*[#   6]+0.018*[#   7]
          +0.018*[#   8]
    |psi|^2 = 0.107
==== e(  14) =    20.08184 eV ==== 
     psi = 0.070*[#   2]+0.070*[#   3]+0.070*[#   4]+0.070*[#   6]+0.070*[#   7]
          +0.070*[#   8]+0.063*[#   1]+0.063*[#   5]
    |psi|^2 = 0.545

 k =   0.2911616158  0.2911616158  0.2911616158
==== e(   1) =    -3.51218 eV ==== 
     psi = 0.362*[#   1]+0.362*[#   5]+0.045*[#   2]+0.045*[#   3]+0.045*[#   4]
          +0.045*[#   6]+0.045*[#   7]+0.045*[#   8]
    |psi|^2 = 0.996
==== e(   2) =     0.05813 eV ==== 
     psi = 0.136*[#   1]+0.136*[#   5]+0.119*[#   2]+0.119*[#   3]+0.119*[#   4]
          +0.119*[#   6]+0.119*[#   7]+0.119*[#   8]
    |psi|^2 = 0.988
==== e(   3) =     5.36806 eV ==== 
     psi = 0.165*[#   2]+0.165*[#   3]+0.165*[#   4]+0.165*[#   6]+0.165*[#   7]
          +0.165*[#   8]
    |psi|^2 = 0.988
==== e(   4) =     5.36806 eV ==== 
     psi = 0.165*[#   2]+0.165*[#   3]+0.165*[#   4]+0.165*[#   6]+0.165*[#   7]
          +0.165*[#   8]
    |psi|^2 = 0.988
==== e(   5) =     8.09302 eV ==== 
     psi = 0.337*[#   1]+0.337*[#   5]+0.042*[#   2]+0.042*[#   3]+0.042*[#   4]
          +0.042*[#   6]+0.042*[#   7]+0.042*[#   8]
    |psi|^2 = 0.925
==== e(   6) =     9.82992 eV ==== 
     psi = 0.129*[#   2]+0.129*[#   3]+0.129*[#   4]+0.129*[#   6]+0.129*[#   7]
          +0.129*[#   8]
    |psi|^2 = 0.775
==== e(   7) =     9.82992 eV ==== 
     psi = 0.129*[#   2]+0.129*[#   3]+0.129*[#   4]+0.129*[#   6]+0.129*[#   7]
          +0.129*[#   8]
    |psi|^2 = 0.775
==== e(   8) =    14.26985 eV ==== 
     psi = 0.028*[#   2]+0.028*[#   3]+0.028*[#   4]+0.028*[#   6]+0.028*[#   7]
          +0.028*[#   8]+0.024*[#   1]+0.024*[#   5]
    |psi|^2 = 0.214
==== e(   9) =    15.69485 eV ==== 
     psi = 0.016*[#   2]+0.016*[#   3]+0.016*[#   4]+0.016*[#   6]+0.016*[#   7]
          +0.016*[#   8]
    |psi|^2 = 0.099
==== e(  10) =    15.69485 eV ==== 
     psi = 0.016*[#   2]+0.016*[#   3]+0.016*[#   4]+0.016*[#   6]+0.016*[#   7]
          +0.016*[#   8]
    |psi|^2 = 0.099
==== e(  11) =    16.84802 eV ==== 
     psi = 0.075*[#   1]+0.075*[#   5]+0.038*[#   2]+0.038*[#   3]+0.038*[#   4]
          +0.038*[#   6]+0.038*[#   7]+0.038*[#   8]
    |psi|^2 = 0.379
==== e(  12) =    19.47832 eV ==== 
     psi = 0.015*[#   2]+0.015*[#   3]+0.015*[#   4]+0.015*[#   6]+0.015*[#   7]
          +0.015*[#   8]
    |psi|^2 = 0.091
==== e(  13) =    19.47832 eV ==== 
     psi = 0.015*[#   2]+0.015*[#   3]+0.015*[#   4]+0.015*[#   6]+0.015*[#   7]
          +0.015*[#   8]
    |psi|^2 = 0.091
==== e(  14) =    20.45201 eV ==== 
     psi = 0.054*[#   2]+0.054*[#   3]+0.054*[#   4]+0.054*[#   6]+0.054*[#   7]
          +0.054*[#   8]+0.050*[#   1]+0.050*[#   5]
    |psi|^2 = 0.425

 k =   0.2703643575  0.2703643575  0.2703643575
==== e(   1) =    -3.72882 eV ==== 
     psi = 0.357*[#   1]+0.357*[#   5]+0.047*[#   2]+0.047*[#   3]+0.047*[#   4]
          +0.047*[#   6]+0.047*[#   7]+0.047*[#   8]
    |psi|^2 = 0.996
==== e(   2) =     0.42539 eV ==== 
     psi = 0.143*[#   1]+0.143*[#   5]+0.117*[#   2]+0.117*[#   3]+0.117*[#   4]
          +0.117*[#   6]+0.117*[#   7]+0.117*[#   8]
    |psi|^2 = 0.989
==== e(   3) =     5.41271 eV ==== 
     psi = 0.165*[#   2]+0.165*[#   3]+0.165*[#   4]+0.165*[#   6]+0.165*[#   7]
          +0.165*[#   8]
    |psi|^2 = 0.988
==== e(   4) =     5.41271 eV ==== 
     psi = 0.165*[#   2]+0.165*[#   3]+0.165*[#   4]+0.165*[#   6]+0.165*[#   7]
          +0.165*[#   8]
    |psi|^2 = 0.988
==== e(   5) =     8.14142 eV ==== 
     psi = 0.329*[#   1]+0.329*[#   5]+0.045*[#   2]+0.045*[#   3]+0.045*[#   4]
          +0.045*[#   6]+0.045*[#   7]+0.045*[#   8]
    |psi|^2 = 0.928
==== e(   6) =     9.87238 eV ==== 
     psi = 0.131*[#   2]+0.131*[#   3]+0.131*[#   4]+0.131*[#   6]+0.131*[#   7]
          +0.131*[#   8]
    |psi|^2 = 0.784
==== e(   7) =     9.87238 eV ==== 
     psi = 0.131*[#   2]+0.131*[#   3]+0.131*[#   4]+0.131*[#   6]+0.131*[#   7]
          +0.131*[#   8]
    |psi|^2 = 0.784
==== e(   8) =    14.32669 eV ==== 
     psi = 0.033*[#   2]+0.033*[#   3]+0.033*[#   4]+0.033*[#   6]+0.033*[#   7]
          +0.033*[#   8]+0.031*[#   1]+0.031*[#   5]
    |psi|^2 = 0.262
==== e(   9) =    15.19995 eV ==== 
     psi = 0.017*[#   2]+0.017*[#   3]+0.017*[#   4]+0.017*[#   6]+0.017*[#   7]
          +0.017*[#   8]
    |psi|^2 = 0.104
==== e(  10) =    15.19995 eV ==== 
     psi = 0.017*[#   2]+0.017*[#   3]+0.017*[#   4]+0.017*[#   6]+0.017*[#   7]
          +0.017*[#   8]
    |psi|^2 = 0.104
==== e(  11) =    16.35165 eV ==== 
     psi = 0.085*[#   1]+0.085*[#   5]+0.041*[#   2]+0.041*[#   3]+0.041*[#   4]
          +0.041*[#   6]+0.041*[#   7]+0.041*[#   8]
    |psi|^2 = 0.415
==== e(  12) =    20.15335 eV ==== 
     psi = 0.013*[#   2]+0.013*[#   3]+0.013*[#   4]+0.013*[#   6]+0.013*[#   7]
          +0.013*[#   8]
    |psi|^2 = 0.078
==== e(  13) =    20.15335 eV ==== 
     psi = 0.013*[#   2]+0.013*[#   3]+0.013*[#   4]+0.013*[#   6]+0.013*[#   7]
          +0.013*[#   8]
    |psi|^2 = 0.078
==== e(  14) =    20.63812 eV ==== 
     psi = 0.039*[#   2]+0.039*[#   3]+0.039*[#   4]+0.039*[#   6]+0.039*[#   7]
          +0.039*[#   8]+0.038*[#   1]+0.038*[#   5]
    |psi|^2 = 0.308

 k =   0.2495670993  0.2495670993  0.2495670993
==== e(   1) =    -3.95512 eV ==== 
     psi = 0.356*[#   1]+0.356*[#   5]+0.047*[#   2]+0.047*[#   3]+0.047*[#   4]
          +0.047*[#   6]+0.047*[#   7]+0.047*[#   8]
    |psi|^2 = 0.996
==== e(   2) =     0.84344 eV ==== 
     psi = 0.147*[#   1]+0.147*[#   5]+0.116*[#   2]+0.116*[#   3]+0.116*[#   4]
          +0.116*[#   6]+0.116*[#   7]+0.116*[#   8]
    |psi|^2 = 0.989
==== e(   3) =     5.46894 eV ==== 
     psi = 0.164*[#   2]+0.164*[#   3]+0.164*[#   4]+0.164*[#   6]+0.164*[#   7]
          +0.164*[#   8]
    |psi|^2 = 0.987
==== e(   4) =     5.46894 eV ==== 
     psi = 0.164*[#   2]+0.164*[#   3]+0.164*[#   4]+0.164*[#   6]+0.164*[#   7]
          +0.164*[#   8]
    |psi|^2 = 0.987
==== e(   5) =     8.20312 eV ==== 
     psi = 0.319*[#   1]+0.319*[#   5]+0.049*[#   2]+0.049*[#   3]+0.049*[#   4]
          +0.049*[#   6]+0.049*[#   7]+0.049*[#   8]
    |psi|^2 = 0.931
==== e(   6) =     9.91688 eV ==== 
     psi = 0.133*[#   2]+0.133*[#   3]+0.133*[#   4]+0.133*[#   6]+0.133*[#   7]
          +0.133*[#   8]
    |psi|^2 = 0.798
==== e(   7) =     9.91688 eV ==== 
     psi = 0.133*[#   2]+0.133*[#   3]+0.133*[#   4]+0.133*[#   6]+0.133*[#   7]
          +0.133*[#   8]
    |psi|^2 = 0.798
==== e(   8) =    14.36329 eV ==== 
     psi = 0.047*[#   1]+0.047*[#   5]+0.045*[#   2]+0.045*[#   3]+0.045*[#   4]
          +0.045*[#   6]+0.045*[#   7]+0.045*[#   8]
    |psi|^2 = 0.362
==== e(   9) =    14.74654 eV ==== 
     psi = 0.017*[#   2]+0.017*[#   3]+0.017*[#   4]+0.017*[#   6]+0.017*[#   7]
          +0.017*[#   8]
    |psi|^2 = 0.101
==== e(  10) =    14.74654 eV ==== 
     psi = 0.017*[#   2]+0.017*[#   3]+0.017*[#   4]+0.017*[#   6]+0.017*[#   7]
          +0.017*[#   8]
    |psi|^2 = 0.101
==== e(  11) =    15.89105 eV ==== 
     psi = 0.084*[#   1]+0.084*[#   5]+0.036*[#   2]+0.036*[#   3]+0.036*[#   4]
          +0.036*[#   6]+0.036*[#   7]+0.036*[#   8]
    |psi|^2 = 0.383
==== e(  12) =    20.45905 eV ==== 
     psi = 0.026*[#   1]+0.026*[#   5]+0.023*[#   2]+0.023*[#   3]+0.023*[#   4]
          +0.023*[#   6]+0.023*[#   7]+0.023*[#   8]
    |psi|^2 = 0.191
==== e(  13) =    20.80502 eV ==== 
     psi = 0.011*[#   2]+0.011*[#   3]+0.011*[#   4]+0.011*[#   6]+0.011*[#   7]
          +0.011*[#   8]
    |psi|^2 = 0.068
==== e(  14) =    20.80502 eV ==== 
     psi = 0.011*[#   2]+0.011*[#   3]+0.011*[#   4]+0.011*[#   6]+0.011*[#   7]
          +0.011*[#   8]
    |psi|^2 = 0.068

 k =   0.2287698410  0.2287698410  0.2287698410
==== e(   1) =    -4.17858 eV ==== 
     psi = 0.359*[#   1]+0.359*[#   5]+0.046*[#   2]+0.046*[#   3]+0.046*[#   4]
          +0.046*[#   6]+0.046*[#   7]+0.046*[#   8]
    |psi|^2 = 0.996
==== e(   2) =     1.30026 eV ==== 
     psi = 0.148*[#   1]+0.148*[#   5]+0.115*[#   2]+0.115*[#   3]+0.115*[#   4]
          +0.115*[#   6]+0.115*[#   7]+0.115*[#   8]
    |psi|^2 = 0.989
==== e(   3) =     5.53755 eV ==== 
     psi = 0.164*[#   2]+0.164*[#   3]+0.164*[#   4]+0.164*[#   6]+0.164*[#   7]
          +0.164*[#   8]
    |psi|^2 = 0.986
==== e(   4) =     5.53755 eV ==== 
     psi = 0.164*[#   2]+0.164*[#   3]+0.164*[#   4]+0.164*[#   6]+0.164*[#   7]
          +0.164*[#   8]
    |psi|^2 = 0.986
==== e(   5) =     8.27870 eV ==== 
     psi = 0.308*[#   1]+0.308*[#   5]+0.053*[#   2]+0.053*[#   3]+0.053*[#   4]
          +0.053*[#   6]+0.053*[#   7]+0.053*[#   8]
    |psi|^2 = 0.935
==== e(   6) =     9.95652 eV ==== 
     psi = 0.136*[#   2]+0.136*[#   3]+0.136*[#   4]+0.136*[#   6]+0.136*[#   7]
          +0.136*[#   8]
    |psi|^2 = 0.818
==== e(   7) =     9.95652 eV ==== 
     psi = 0.136*[#   2]+0.136*[#   3]+0.136*[#   4]+0.136*[#   6]+0.136*[#   7]
          +0.136*[#   8]
    |psi|^2 = 0.818
==== e(   8) =    14.31382 eV ==== 
     psi = 0.083*[#   1]+0.083*[#   5]+0.064*[#   2]+0.064*[#   3]+0.064*[#   4]
          +0.064*[#   6]+0.064*[#   7]+0.064*[#   8]
    |psi|^2 = 0.550
==== e(   9) =    14.34870 eV ==== 
     psi = 0.015*[#   2]+0.015*[#   3]+0.015*[#   4]+0.015*[#   6]+0.015*[#   7]
          +0.015*[#   8]
    |psi|^2 = 0.092
==== e(  10) =    14.34870 eV ==== 
     psi = 0.015*[#   2]+0.015*[#   3]+0.015*[#   4]+0.015*[#   6]+0.015*[#   7]
          +0.015*[#   8]
    |psi|^2 = 0.092
==== e(  11) =    15.53712 eV ==== 
     psi = 0.064*[#   1]+0.064*[#   5]+0.020*[#   2]+0.020*[#   3]+0.020*[#   4]
          +0.020*[#   6]+0.020*[#   7]+0.020*[#   8]
    |psi|^2 = 0.250
==== e(  12) =    19.96083 eV ==== 
     psi = 0.019*[#   1]+0.019*[#   5]+0.013*[#   2]+0.013*[#   3]+0.013*[#   4]
          +0.013*[#   6]+0.013*[#   7]+0.013*[#   8]
    |psi|^2 = 0.113
==== e(  13) =    21.36897 eV ==== 
     psi = 0.010*[#   2]+0.010*[#   3]+0.010*[#   4]+0.010*[#   6]+0.010*[#   7]
          +0.010*[#   8]
    |psi|^2 = 0.057
==== e(  14) =    21.36897 eV ==== 
     psi = 0.010*[#   2]+0.010*[#   3]+0.010*[#   4]+0.010*[#   6]+0.010*[#   7]
          +0.010*[#   8]
    |psi|^2 = 0.057

 k =   0.2079725827  0.2079725827  0.2079725827
==== e(   1) =    -4.39261 eV ==== 
     psi = 0.365*[#   1]+0.365*[#   5]+0.044*[#   2]+0.044*[#   3]+0.044*[#   4]
          +0.044*[#   6]+0.044*[#   7]+0.044*[#   8]
    |psi|^2 = 0.996
==== e(   2) =     1.78740 eV ==== 
     psi = 0.146*[#   1]+0.146*[#   5]+0.116*[#   2]+0.116*[#   3]+0.116*[#   4]
          +0.116*[#   6]+0.116*[#   7]+0.116*[#   8]
    |psi|^2 = 0.988
==== e(   3) =     5.61778 eV ==== 
     psi = 0.164*[#   2]+0.164*[#   3]+0.164*[#   4]+0.164*[#   6]+0.164*[#   7]
          +0.164*[#   8]
    |psi|^2 = 0.984
==== e(   4) =     5.61778 eV ==== 
     psi = 0.164*[#   2]+0.164*[#   3]+0.164*[#   4]+0.164*[#   6]+0.164*[#   7]
          +0.164*[#   8]
    |psi|^2 = 0.984
==== e(   5) =     8.36480 eV ==== 
     psi = 0.294*[#   1]+0.294*[#   5]+0.058*[#   2]+0.058*[#   3]+0.058*[#   4]
          +0.058*[#   6]+0.058*[#   7]+0.058*[#   8]
    |psi|^2 = 0.938
==== e(   6) =     9.97815 eV ==== 
     psi = 0.140*[#   2]+0.140*[#   3]+0.140*[#   4]+0.140*[#   6]+0.140*[#   7]
          +0.140*[#   8]
    |psi|^2 = 0.842
==== e(   7) =     9.97815 eV ==== 
     psi = 0.140*[#   2]+0.140*[#   3]+0.140*[#   4]+0.140*[#   6]+0.140*[#   7]
          +0.140*[#   8]
    |psi|^2 = 0.842
==== e(   8) =    14.01630 eV ==== 
     psi = 0.013*[#   2]+0.013*[#   3]+0.013*[#   4]+0.013*[#   6]+0.013*[#   7]
          +0.013*[#   8]
    |psi|^2 = 0.077
==== e(   9) =    14.01630 eV ==== 
     psi = 0.013*[#   2]+0.013*[#   3]+0.013*[#   4]+0.013*[#   6]+0.013*[#   7]
          +0.013*[#   8]
    |psi|^2 = 0.077
==== e(  10) =    14.08347 eV ==== 
     psi = 0.131*[#   1]+0.131*[#   5]+0.082*[#   2]+0.082*[#   3]+0.082*[#   4]
          +0.082*[#   6]+0.082*[#   7]+0.082*[#   8]
    |psi|^2 = 0.755
==== e(  11) =    15.38297 eV ==== 
     psi = 0.032*[#   1]+0.032*[#   5]+0.005*[#   2]+0.005*[#   3]+0.005*[#   4]
          +0.005*[#   6]+0.005*[#   7]+0.005*[#   8]
    |psi|^2 = 0.091
==== e(  12) =    19.32737 eV ==== 
     psi = 0.015*[#   1]+0.015*[#   5]+0.007*[#   2]+0.007*[#   3]+0.007*[#   4]
          +0.007*[#   6]+0.007*[#   7]+0.007*[#   8]
    |psi|^2 = 0.071
==== e(  13) =    21.61587 eV ==== 
     psi = 0.007*[#   2]+0.007*[#   3]+0.007*[#   4]+0.007*[#   6]+0.007*[#   7]
          +0.007*[#   8]
    |psi|^2 = 0.041
==== e(  14) =    21.61587 eV ==== 
     psi = 0.007*[#   2]+0.007*[#   3]+0.007*[#   4]+0.007*[#   6]+0.007*[#   7]
          +0.007*[#   8]
    |psi|^2 = 0.041

 k =   0.1871753245  0.1871753245  0.1871753245
==== e(   1) =    -4.59245 eV ==== 
     psi = 0.374*[#   1]+0.374*[#   5]+0.041*[#   2]+0.041*[#   3]+0.041*[#   4]
          +0.041*[#   6]+0.041*[#   7]+0.041*[#   8]
    |psi|^2 = 0.996
==== e(   2) =     2.29884 eV ==== 
     psi = 0.142*[#   1]+0.142*[#   5]+0.117*[#   2]+0.117*[#   3]+0.117*[#   4]
          +0.117*[#   6]+0.117*[#   7]+0.117*[#   8]
    |psi|^2 = 0.987
==== e(   3) =     5.70922 eV ==== 
     psi = 0.164*[#   2]+0.164*[#   3]+0.164*[#   4]+0.164*[#   6]+0.164*[#   7]
          +0.164*[#   8]
    |psi|^2 = 0.983
==== e(   4) =     5.70922 eV ==== 
     psi = 0.164*[#   2]+0.164*[#   3]+0.164*[#   4]+0.164*[#   6]+0.164*[#   7]
          +0.164*[#   8]
    |psi|^2 = 0.983
==== e(   5) =     8.46185 eV ==== 
     psi = 0.278*[#   1]+0.278*[#   5]+0.064*[#   2]+0.064*[#   3]+0.064*[#   4]
          +0.064*[#   6]+0.064*[#   7]+0.064*[#   8]
    |psi|^2 = 0.942
==== e(   6) =     9.96853 eV ==== 
     psi = 0.145*[#   2]+0.145*[#   3]+0.145*[#   4]+0.145*[#   6]+0.145*[#   7]
          +0.145*[#   8]
    |psi|^2 = 0.870
==== e(   7) =     9.96853 eV ==== 
     psi = 0.145*[#   2]+0.145*[#   3]+0.145*[#   4]+0.145*[#   6]+0.145*[#   7]
          +0.145*[#   8]
    |psi|^2 = 0.870
==== e(   8) =    13.68331 eV ==== 
     psi = 0.166*[#   1]+0.166*[#   5]+0.087*[#   2]+0.087*[#   3]+0.087*[#   4]
          +0.087*[#   6]+0.087*[#   7]+0.087*[#   8]
    |psi|^2 = 0.857
==== e(   9) =    13.76561 eV ==== 
     psi = 0.010*[#   2]+0.010*[#   3]+0.010*[#   4]+0.010*[#   6]+0.010*[#   7]
          +0.010*[#   8]
    |psi|^2 = 0.058
==== e(  10) =    13.76561 eV ==== 
     psi = 0.010*[#   2]+0.010*[#   3]+0.010*[#   4]+0.010*[#   6]+0.010*[#   7]
          +0.010*[#   8]
    |psi|^2 = 0.058
==== e(  11) =    15.40948 eV ==== 
     psi = 0.013*[#   1]+0.013*[#   5]
    |psi|^2 = 0.028
==== e(  12) =    18.67009 eV ==== 
     psi = 0.012*[#   1]+0.012*[#   5]+0.004*[#   2]+0.004*[#   3]+0.004*[#   4]
          +0.004*[#   6]+0.004*[#   7]+0.004*[#   8]
    |psi|^2 = 0.046
==== e(  13) =    21.38625 eV ==== 
     psi = 0.004*[#   2]+0.004*[#   3]+0.004*[#   4]+0.004*[#   6]+0.004*[#   7]
          +0.004*[#   8]
    |psi|^2 = 0.026
==== e(  14) =    21.38625 eV ==== 
     psi = 0.004*[#   2]+0.004*[#   3]+0.004*[#   4]+0.004*[#   6]+0.004*[#   7]
          +0.004*[#   8]
    |psi|^2 = 0.026

 k =   0.1663780661  0.1663780661  0.1663780661
==== e(   1) =    -4.77550 eV ==== 
     psi = 0.385*[#   1]+0.385*[#   5]+0.037*[#   2]+0.037*[#   3]+0.037*[#   4]
          +0.037*[#   6]+0.037*[#   7]+0.037*[#   8]
    |psi|^2 = 0.996
==== e(   2) =     2.83071 eV ==== 
     psi = 0.135*[#   1]+0.135*[#   5]+0.119*[#   2]+0.119*[#   3]+0.119*[#   4]
          +0.119*[#   6]+0.119*[#   7]+0.119*[#   8]
    |psi|^2 = 0.986
==== e(   3) =     5.81073 eV ==== 
     psi = 0.163*[#   2]+0.163*[#   3]+0.163*[#   4]+0.163*[#   6]+0.163*[#   7]
          +0.163*[#   8]
    |psi|^2 = 0.981
==== e(   4) =     5.81073 eV ==== 
     psi = 0.163*[#   2]+0.163*[#   3]+0.163*[#   4]+0.163*[#   6]+0.163*[#   7]
          +0.163*[#   8]
    |psi|^2 = 0.981
==== e(   5) =     8.56689 eV ==== 
     psi = 0.259*[#   1]+0.259*[#   5]+0.071*[#   2]+0.071*[#   3]+0.071*[#   4]
          +0.071*[#   6]+0.071*[#   7]+0.071*[#   8]
    |psi|^2 = 0.945
==== e(   6) =     9.92312 eV ==== 
     psi = 0.150*[#   2]+0.150*[#   3]+0.150*[#   4]+0.150*[#   6]+0.150*[#   7]
          +0.150*[#   8]
    |psi|^2 = 0.898
==== e(   7) =     9.92312 eV ==== 
     psi = 0.150*[#   2]+0.150*[#   3]+0.150*[#   4]+0.150*[#   6]+0.150*[#   7]
          +0.150*[#   8]
    |psi|^2 = 0.898
==== e(   8) =    13.20376 eV ==== 
     psi = 0.191*[#   1]+0.191*[#   5]+0.086*[#   2]+0.086*[#   3]+0.086*[#   4]
          +0.086*[#   6]+0.086*[#   7]+0.086*[#   8]
    |psi|^2 = 0.900
==== e(   9) =    13.59882 eV ==== 
     psi = 0.006*[#   2]+0.006*[#   3]+0.006*[#   4]+0.006*[#   6]+0.006*[#   7]
          +0.006*[#   8]
    |psi|^2 = 0.038
==== e(  10) =    13.59882 eV ==== 
     psi = 0.006*[#   2]+0.006*[#   3]+0.006*[#   4]+0.006*[#   6]+0.006*[#   7]
          +0.006*[#   8]
    |psi|^2 = 0.038
==== e(  11) =    15.51209 eV ==== 
     psi = 0.006*[#   1]+0.006*[#   5]
    |psi|^2 = 0.016
==== e(  12) =    18.05145 eV ==== 
     psi = 0.010*[#   1]+0.010*[#   5]+0.002*[#   2]+0.002*[#   3]+0.002*[#   4]
          +0.002*[#   6]+0.002*[#   7]+0.002*[#   8]
    |psi|^2 = 0.029
==== e(  13) =    20.89680 eV ==== 
     psi = 0.003*[#   2]+0.003*[#   3]+0.003*[#   4]+0.003*[#   6]+0.003*[#   7]
          +0.003*[#   8]
    |psi|^2 = 0.019
==== e(  14) =    20.89680 eV ==== 
     psi = 0.003*[#   2]+0.003*[#   3]+0.003*[#   4]+0.003*[#   6]+0.003*[#   7]
          +0.003*[#   8]
    |psi|^2 = 0.019

 k =   0.1455808079  0.1455808079  0.1455808079
==== e(   1) =    -4.93973 eV ==== 
     psi = 0.400*[#   1]+0.400*[#   5]+0.033*[#   2]+0.033*[#   3]+0.033*[#   4]
          +0.033*[#   6]+0.033*[#   7]+0.033*[#   8]
    |psi|^2 = 0.996
==== e(   2) =     3.37794 eV ==== 
     psi = 0.126*[#   1]+0.126*[#   5]+0.122*[#   2]+0.122*[#   3]+0.122*[#   4]
          +0.122*[#   6]+0.122*[#   7]+0.122*[#   8]
    |psi|^2 = 0.985
==== e(   3) =     5.92082 eV ==== 
     psi = 0.163*[#   2]+0.163*[#   3]+0.163*[#   4]+0.163*[#   6]+0.163*[#   7]
          +0.163*[#   8]
    |psi|^2 = 0.979
==== e(   4) =     5.92082 eV ==== 
     psi = 0.163*[#   2]+0.163*[#   3]+0.163*[#   4]+0.163*[#   6]+0.163*[#   7]
          +0.163*[#   8]
    |psi|^2 = 0.979
==== e(   5) =     8.68099 eV ==== 
     psi = 0.238*[#   1]+0.238*[#   5]+0.079*[#   2]+0.079*[#   3]+0.079*[#   4]
          +0.079*[#   6]+0.079*[#   7]+0.079*[#   8]
    |psi|^2 = 0.949
==== e(   6) =     9.83450 eV ==== 
     psi = 0.153*[#   2]+0.153*[#   3]+0.153*[#   4]+0.153*[#   6]+0.153*[#   7]
          +0.153*[#   8]
    |psi|^2 = 0.921
==== e(   7) =     9.83450 eV ==== 
     psi = 0.153*[#   2]+0.153*[#   3]+0.153*[#   4]+0.153*[#   6]+0.153*[#   7]
          +0.153*[#   8]
    |psi|^2 = 0.921
==== e(   8) =    12.69044 eV ==== 
     psi = 0.213*[#   1]+0.213*[#   5]+0.083*[#   2]+0.083*[#   3]+0.083*[#   4]
          +0.083*[#   6]+0.083*[#   7]+0.083*[#   8]
    |psi|^2 = 0.925
==== e(   9) =    13.52182 eV ==== 
     psi = 0.004*[#   2]+0.004*[#   3]+0.004*[#   4]+0.004*[#   6]+0.004*[#   7]
          +0.004*[#   8]
    |psi|^2 = 0.022
==== e(  10) =    13.52182 eV ==== 
     psi = 0.004*[#   2]+0.004*[#   3]+0.004*[#   4]+0.004*[#   6]+0.004*[#   7]
          +0.004*[#   8]
    |psi|^2 = 0.022
==== e(  11) =    15.60925 eV ==== 
     psi = 0.003*[#   1]+0.003*[#   5]+0.002*[#   2]+0.002*[#   3]+0.002*[#   4]
          +0.002*[#   6]+0.002*[#   7]+0.002*[#   8]
    |psi|^2 = 0.016
==== e(  12) =    17.52620 eV ==== 
     psi = 0.008*[#   1]+0.008*[#   5]
    |psi|^2 = 0.018
==== e(  13) =    20.33277 eV ==== 
     psi = 0.003*[#   2]+0.003*[#   3]+0.003*[#   4]+0.003*[#   6]+0.003*[#   7]
          +0.003*[#   8]
    |psi|^2 = 0.016
==== e(  14) =    20.33277 eV ==== 
     psi = 0.003*[#   2]+0.003*[#   3]+0.003*[#   4]+0.003*[#   6]+0.003*[#   7]
          +0.003*[#   8]
    |psi|^2 = 0.016

 k =   0.1247835496  0.1247835496  0.1247835496
==== e(   1) =    -5.08389 eV ==== 
     psi = 0.417*[#   1]+0.417*[#   5]+0.027*[#   2]+0.027*[#   3]+0.027*[#   4]
          +0.027*[#   6]+0.027*[#   7]+0.027*[#   8]
    |psi|^2 = 0.996
==== e(   2) =     3.93555 eV ==== 
     psi = 0.126*[#   2]+0.126*[#   3]+0.126*[#   4]+0.126*[#   6]+0.126*[#   7]
          +0.126*[#   8]+0.114*[#   1]+0.114*[#   5]
    |psi|^2 = 0.983
==== e(   3) =     6.03716 eV ==== 
     psi = 0.163*[#   2]+0.163*[#   3]+0.163*[#   4]+0.163*[#   6]+0.163*[#   7]
          +0.163*[#   8]
    |psi|^2 = 0.976
==== e(   4) =     6.03716 eV ==== 
     psi = 0.163*[#   2]+0.163*[#   3]+0.163*[#   4]+0.163*[#   6]+0.163*[#   7]
          +0.163*[#   8]
    |psi|^2 = 0.976
==== e(   5) =     8.79303 eV ==== 
     psi = 0.214*[#   1]+0.214*[#   5]+0.087*[#   2]+0.087*[#   3]+0.087*[#   4]
          +0.087*[#   6]+0.087*[#   7]+0.087*[#   8]
    |psi|^2 = 0.952
==== e(   6) =     9.70749 eV ==== 
     psi = 0.156*[#   2]+0.156*[#   3]+0.156*[#   4]+0.156*[#   6]+0.156*[#   7]
          +0.156*[#   8]
    |psi|^2 = 0.937
==== e(   7) =     9.70749 eV ==== 
     psi = 0.156*[#   2]+0.156*[#   3]+0.156*[#   4]+0.156*[#   6]+0.156*[#   7]
          +0.156*[#   8]
    |psi|^2 = 0.937
==== e(   8) =    12.16258 eV ==== 
     psi = 0.237*[#   1]+0.237*[#   5]+0.078*[#   2]+0.078*[#   3]+0.078*[#   4]
          +0.078*[#   6]+0.078*[#   7]+0.078*[#   8]
    |psi|^2 = 0.942
==== e(   9) =    13.53232 eV ==== 
     psi = 0.002*[#   2]+0.002*[#   3]+0.002*[#   4]+0.002*[#   6]+0.002*[#   7]
          +0.002*[#   8]
    |psi|^2 = 0.012
==== e(  10) =    13.53232 eV ==== 
     psi = 0.002*[#   2]+0.002*[#   3]+0.002*[#   4]+0.002*[#   6]+0.002*[#   7]
          +0.002*[#   8]
    |psi|^2 = 0.012
==== e(  11) =    15.61428 eV ==== 
     psi = 0.002*[#   2]+0.002*[#   3]+0.002*[#   4]+0.002*[#   6]+0.002*[#   7]
          +0.002*[#   8]+0.002*[#   1]+0.002*[#   5]
    |psi|^2 = 0.016
==== e(  12) =    17.17454 eV ==== 
     psi = 0.006*[#   1]+0.006*[#   5]
    |psi|^2 = 0.012
==== e(  13) =    19.76741 eV ==== 
     psi = 0.003*[#   2]+0.003*[#   3]+0.003*[#   4]+0.003*[#   6]+0.003*[#   7]
          +0.003*[#   8]
    |psi|^2 = 0.016
==== e(  14) =    19.76741 eV ==== 
     psi = 0.003*[#   2]+0.003*[#   3]+0.003*[#   4]+0.003*[#   6]+0.003*[#   7]
          +0.003*[#   8]
    |psi|^2 = 0.016

 k =   0.1039862913  0.1039862913  0.1039862913
==== e(   1) =    -5.20685 eV ==== 
     psi = 0.435*[#   1]+0.435*[#   5]+0.021*[#   2]+0.021*[#   3]+0.021*[#   4]
          +0.021*[#   6]+0.021*[#   7]+0.021*[#   8]
    |psi|^2 = 0.996
==== e(   2) =     4.49655 eV ==== 
     psi = 0.130*[#   2]+0.130*[#   3]+0.130*[#   4]+0.130*[#   6]+0.130*[#   7]
          +0.130*[#   8]+0.100*[#   1]+0.100*[#   5]
    |psi|^2 = 0.981
==== e(   3) =     6.15744 eV ==== 
     psi = 0.162*[#   2]+0.162*[#   3]+0.162*[#   4]+0.162*[#   6]+0.162*[#   7]
          +0.162*[#   8]
    |psi|^2 = 0.974
==== e(   4) =     6.15744 eV ==== 
     psi = 0.162*[#   2]+0.162*[#   3]+0.162*[#   4]+0.162*[#   6]+0.162*[#   7]
          +0.162*[#   8]
    |psi|^2 = 0.974
==== e(   5) =     8.90029 eV ==== 
     psi = 0.185*[#   1]+0.185*[#   5]+0.097*[#   2]+0.097*[#   3]+0.097*[#   4]
          +0.097*[#   6]+0.097*[#   7]+0.097*[#   8]
    |psi|^2 = 0.955
==== e(   6) =     9.55414 eV ==== 
     psi = 0.158*[#   2]+0.158*[#   3]+0.158*[#   4]+0.158*[#   6]+0.158*[#   7]
          +0.158*[#   8]
    |psi|^2 = 0.948
==== e(   7) =     9.55414 eV ==== 
     psi = 0.158*[#   2]+0.158*[#   3]+0.158*[#   4]+0.158*[#   6]+0.158*[#   7]
          +0.158*[#   8]
    |psi|^2 = 0.948
==== e(   8) =    11.63175 eV ==== 
     psi = 0.265*[#   1]+0.265*[#   5]+0.071*[#   2]+0.071*[#   3]+0.071*[#   4]
          +0.071*[#   6]+0.071*[#   7]+0.071*[#   8]
    |psi|^2 = 0.955
==== e(   9) =    13.61012 eV ==== 
     psi = 0.001*[#   2]+0.001*[#   3]+0.001*[#   4]+0.001*[#   6]+0.001*[#   7]
          +0.001*[#   8]
    |psi|^2 = 0.006
==== e(  10) =    13.61012 eV ==== 
     psi = 0.001*[#   2]+0.001*[#   3]+0.001*[#   4]+0.001*[#   6]+0.001*[#   7]
          +0.001*[#   8]
    |psi|^2 = 0.006
==== e(  11) =    15.45485 eV ==== 
     psi = 0.001*[#   1]+0.001*[#   2]+0.001*[#   3]+0.001*[#   4]+0.001*[#   5]
          +0.001*[#   6]+0.001*[#   7]+0.001*[#   8]
    |psi|^2 = 0.012
==== e(  12) =    17.06690 eV ==== 
     psi = 0.004*[#   1]+0.004*[#   5]
    |psi|^2 = 0.014
==== e(  13) =    19.22787 eV ==== 
     psi = 0.003*[#   2]+0.003*[#   3]+0.003*[#   4]+0.003*[#   6]+0.003*[#   7]
          +0.003*[#   8]
    |psi|^2 = 0.017
==== e(  14) =    19.22787 eV ==== 
     psi = 0.003*[#   2]+0.003*[#   3]+0.003*[#   4]+0.003*[#   6]+0.003*[#   7]
          +0.003*[#   8]
    |psi|^2 = 0.017

 k =   0.0831890331  0.0831890331  0.0831890331
==== e(   1) =    -5.30851 eV ==== 
     psi = 0.453*[#   1]+0.453*[#   5]+0.015*[#   2]+0.015*[#   3]+0.015*[#   4]
          +0.015*[#   6]+0.015*[#   7]+0.015*[#   8]
    |psi|^2 = 0.996
==== e(   2) =     5.05103 eV ==== 
     psi = 0.136*[#   2]+0.136*[#   3]+0.136*[#   4]+0.136*[#   6]+0.136*[#   7]
          +0.136*[#   8]+0.082*[#   1]+0.082*[#   5]
    |psi|^2 = 0.978
==== e(   3) =     6.27408 eV ==== 
     psi = 0.162*[#   2]+0.162*[#   3]+0.162*[#   4]+0.162*[#   6]+0.162*[#   7]
          +0.162*[#   8]
    |psi|^2 = 0.971
==== e(   4) =     6.27408 eV ==== 
     psi = 0.162*[#   2]+0.162*[#   3]+0.162*[#   4]+0.162*[#   6]+0.162*[#   7]
          +0.162*[#   8]
    |psi|^2 = 0.971
==== e(   5) =     8.99402 eV ==== 
     psi = 0.150*[#   1]+0.150*[#   5]+0.110*[#   2]+0.110*[#   3]+0.110*[#   4]
          +0.110*[#   6]+0.110*[#   7]+0.110*[#   8]
    |psi|^2 = 0.958
==== e(   6) =     9.39011 eV ==== 
     psi = 0.159*[#   2]+0.159*[#   3]+0.159*[#   4]+0.159*[#   6]+0.159*[#   7]
          +0.159*[#   8]
    |psi|^2 = 0.954
==== e(   7) =     9.39011 eV ==== 
     psi = 0.159*[#   2]+0.159*[#   3]+0.159*[#   4]+0.159*[#   6]+0.159*[#   7]
          +0.159*[#   8]
    |psi|^2 = 0.954
==== e(   8) =    11.11147 eV ==== 
     psi = 0.302*[#   1]+0.302*[#   5]+0.060*[#   2]+0.060*[#   3]+0.060*[#   4]
          +0.060*[#   6]+0.060*[#   7]+0.060*[#   8]
    |psi|^2 = 0.966
==== e(   9) =    13.73637 eV ==== 
 
    |psi|^2 = 0.004
==== e(  10) =    13.73637 eV ==== 
 
    |psi|^2 = 0.004
==== e(  11) =    15.18187 eV ==== 
     psi = 0.001*[#   1]+0.001*[#   5]
    |psi|^2 = 0.007
==== e(  12) =    17.14947 eV ==== 
     psi = 0.002*[#   1]+0.002*[#   5]+0.002*[#   2]+0.002*[#   3]+0.002*[#   4]
          +0.002*[#   6]+0.002*[#   7]+0.002*[#   8]
    |psi|^2 = 0.017
==== e(  13) =    18.73262 eV ==== 
     psi = 0.003*[#   2]+0.003*[#   3]+0.003*[#   4]+0.003*[#   6]+0.003*[#   7]
          +0.003*[#   8]
    |psi|^2 = 0.018
==== e(  14) =    18.73262 eV ==== 
     psi = 0.003*[#   2]+0.003*[#   3]+0.003*[#   4]+0.003*[#   6]+0.003*[#   7]
          +0.003*[#   8]
    |psi|^2 = 0.018

 k =   0.0623917748  0.0623917748  0.0623917748
==== e(   1) =    -5.38762 eV ==== 
     psi = 0.471*[#   1]+0.471*[#   5]+0.009*[#   2]+0.009*[#   3]+0.009*[#   4]
          +0.009*[#   6]+0.009*[#   7]+0.009*[#   8]
    |psi|^2 = 0.997
==== e(   2) =     5.58300 eV ==== 
     psi = 0.142*[#   2]+0.142*[#   3]+0.142*[#   4]+0.142*[#   6]+0.142*[#   7]
          +0.142*[#   8]+0.061*[#   1]+0.061*[#   5]
    |psi|^2 = 0.974
==== e(   3) =     6.38150 eV ==== 
     psi = 0.161*[#   2]+0.161*[#   3]+0.161*[#   4]+0.161*[#   6]+0.161*[#   7]
          +0.161*[#   8]
    |psi|^2 = 0.968
==== e(   4) =     6.38150 eV ==== 
     psi = 0.161*[#   2]+0.161*[#   3]+0.161*[#   4]+0.161*[#   6]+0.161*[#   7]
          +0.161*[#   8]
    |psi|^2 = 0.968
==== e(   5) =     9.05824 eV ==== 
     psi = 0.125*[#   2]+0.125*[#   3]+0.125*[#   4]+0.125*[#   6]+0.125*[#   7]
          +0.125*[#   8]+0.104*[#   1]+0.104*[#   5]
    |psi|^2 = 0.959
==== e(   6) =     9.23540 eV ==== 
     psi = 0.160*[#   2]+0.160*[#   3]+0.160*[#   4]+0.160*[#   6]+0.160*[#   7]
          +0.160*[#   8]
    |psi|^2 = 0.959
==== e(   7) =     9.23540 eV ==== 
     psi = 0.160*[#   2]+0.160*[#   3]+0.160*[#   4]+0.160*[#   6]+0.160*[#   7]
          +0.160*[#   8]
    |psi|^2 = 0.959
==== e(   8) =    10.62821 eV ==== 
     psi = 0.353*[#   1]+0.353*[#   5]+0.045*[#   2]+0.045*[#   3]+0.045*[#   4]
          +0.045*[#   6]+0.045*[#   7]+0.045*[#   8]
    |psi|^2 = 0.974
==== e(   9) =    13.89259 eV ==== 
 
    |psi|^2 = 0.003
==== e(  10) =    13.89259 eV ==== 
 
    |psi|^2 = 0.003
==== e(  11) =    14.90112 eV ==== 
     psi = 0.001*[#   1]+0.001*[#   5]
    |psi|^2 = 0.004
==== e(  12) =    17.31657 eV ==== 
     psi = 0.003*[#   2]+0.003*[#   3]+0.003*[#   4]+0.003*[#   6]+0.003*[#   7]
          +0.003*[#   8]+0.001*[#   1]+0.001*[#   5]
    |psi|^2 = 0.020
==== e(  13) =    18.30227 eV ==== 
     psi = 0.003*[#   2]+0.003*[#   3]+0.003*[#   4]+0.003*[#   6]+0.003*[#   7]
          +0.003*[#   8]
    |psi|^2 = 0.020
==== e(  14) =    18.30227 eV ==== 
     psi = 0.003*[#   2]+0.003*[#   3]+0.003*[#   4]+0.003*[#   6]+0.003*[#   7]
          +0.003*[#   8]
    |psi|^2 = 0.020

 k =   0.0415945165  0.0415945165  0.0415945165
==== e(   1) =    -5.44457 eV ==== 
     psi = 0.485*[#   1]+0.485*[#   5]+0.004*[#   2]+0.004*[#   3]+0.004*[#   4]
          +0.004*[#   6]+0.004*[#   7]+0.004*[#   8]
    |psi|^2 = 0.997
==== e(   2) =     6.05717 eV ==== 
     psi = 0.149*[#   2]+0.149*[#   3]+0.149*[#   4]+0.149*[#   6]+0.149*[#   7]
          +0.149*[#   8]+0.037*[#   1]+0.037*[#   5]
    |psi|^2 = 0.969
==== e(   3) =     6.47012 eV ==== 
     psi = 0.161*[#   2]+0.161*[#   3]+0.161*[#   4]+0.161*[#   6]+0.161*[#   7]
          +0.161*[#   8]
    |psi|^2 = 0.965
==== e(   4) =     6.47012 eV ==== 
     psi = 0.161*[#   2]+0.161*[#   3]+0.161*[#   4]+0.161*[#   6]+0.161*[#   7]
          +0.161*[#   8]
    |psi|^2 = 0.965
==== e(   5) =     9.07172 eV ==== 
     psi = 0.144*[#   2]+0.144*[#   3]+0.144*[#   4]+0.144*[#   6]+0.144*[#   7]
          +0.144*[#   8]+0.048*[#   1]+0.048*[#   5]
    |psi|^2 = 0.961
==== e(   6) =     9.10586 eV ==== 
     psi = 0.160*[#   2]+0.160*[#   3]+0.160*[#   4]+0.160*[#   6]+0.160*[#   7]
          +0.160*[#   8]
    |psi|^2 = 0.963
==== e(   7) =     9.10586 eV ==== 
     psi = 0.160*[#   2]+0.160*[#   3]+0.160*[#   4]+0.160*[#   6]+0.160*[#   7]
          +0.160*[#   8]
    |psi|^2 = 0.963
==== e(   8) =    10.22543 eV ==== 
     psi = 0.420*[#   1]+0.420*[#   5]+0.023*[#   2]+0.023*[#   3]+0.023*[#   4]
          +0.023*[#   6]+0.023*[#   7]+0.023*[#   8]
    |psi|^2 = 0.980
==== e(   9) =    14.03858 eV ==== 
 
    |psi|^2 = 0.001
==== e(  10) =    14.03858 eV ==== 
 
    |psi|^2 = 0.001
==== e(  11) =    14.67239 eV ==== 
     psi = 0.001*[#   1]+0.001*[#   5]
    |psi|^2 = 0.003
==== e(  12) =    17.48474 eV ==== 
     psi = 0.004*[#   2]+0.004*[#   3]+0.004*[#   4]+0.004*[#   6]+0.004*[#   7]
          +0.004*[#   8]
    |psi|^2 = 0.023
==== e(  13) =    17.95915 eV ==== 
     psi = 0.004*[#   2]+0.004*[#   3]+0.004*[#   4]+0.004*[#   6]+0.004*[#   7]
          +0.004*[#   8]
    |psi|^2 = 0.022
==== e(  14) =    17.95915 eV ==== 
     psi = 0.004*[#   2]+0.004*[#   3]+0.004*[#   4]+0.004*[#   6]+0.004*[#   7]
          +0.004*[#   8]
    |psi|^2 = 0.022

 k =   0.0207972583  0.0207972583  0.0207972583
==== e(   1) =    -5.47881 eV ==== 
     psi = 0.495*[#   1]+0.495*[#   5]+0.001*[#   2]+0.001*[#   3]+0.001*[#   4]
          +0.001*[#   6]+0.001*[#   7]+0.001*[#   8]
    |psi|^2 = 0.997
==== e(   2) =     6.41223 eV ==== 
     psi = 0.157*[#   2]+0.157*[#   3]+0.157*[#   4]+0.157*[#   6]+0.157*[#   7]
          +0.157*[#   8]+0.012*[#   1]+0.012*[#   5]
    |psi|^2 = 0.965
==== e(   3) =     6.52949 eV ==== 
     psi = 0.161*[#   2]+0.161*[#   3]+0.161*[#   4]+0.161*[#   6]+0.161*[#   7]
          +0.161*[#   8]
    |psi|^2 = 0.963
==== e(   4) =     6.52949 eV ==== 
     psi = 0.161*[#   2]+0.161*[#   3]+0.161*[#   4]+0.161*[#   6]+0.161*[#   7]
          +0.161*[#   8]
    |psi|^2 = 0.963
==== e(   5) =     9.02033 eV ==== 
     psi = 0.161*[#   2]+0.161*[#   3]+0.161*[#   4]+0.161*[#   6]+0.161*[#   7]
          +0.161*[#   8]
    |psi|^2 = 0.965
==== e(   6) =     9.02033 eV ==== 
     psi = 0.161*[#   2]+0.161*[#   3]+0.161*[#   4]+0.161*[#   6]+0.161*[#   7]
          +0.161*[#   8]
    |psi|^2 = 0.965
==== e(   7) =     9.02807 eV ==== 
     psi = 0.158*[#   2]+0.158*[#   3]+0.158*[#   4]+0.158*[#   6]+0.158*[#   7]
          +0.158*[#   8]+0.007*[#   1]+0.007*[#   5]
    |psi|^2 = 0.964
==== e(   8) =     9.97045 eV ==== 
     psi = 0.476*[#   1]+0.476*[#   5]+0.005*[#   2]+0.005*[#   3]+0.005*[#   4]
          +0.005*[#   6]+0.005*[#   7]+0.005*[#   8]
    |psi|^2 = 0.984
==== e(   9) =    14.15098 eV ==== 
 
    |psi|^2 = 0.000
==== e(  10) =    14.15098 eV ==== 
 
    |psi|^2 = 0.000
==== e(  11) =    14.52586 eV ==== 
     psi = 0.001*[#   1]+0.001*[#   5]
    |psi|^2 = 0.002
==== e(  12) =    17.60893 eV ==== 
     psi = 0.004*[#   2]+0.004*[#   3]+0.004*[#   4]+0.004*[#   6]+0.004*[#   7]
          +0.004*[#   8]
    |psi|^2 = 0.024
==== e(  13) =    17.73407 eV ==== 
     psi = 0.004*[#   2]+0.004*[#   3]+0.004*[#   4]+0.004*[#   6]+0.004*[#   7]
          +0.004*[#   8]
    |psi|^2 = 0.024
==== e(  14) =    17.73407 eV ==== 
     psi = 0.004*[#   2]+0.004*[#   3]+0.004*[#   4]+0.004*[#   6]+0.004*[#   7]
          +0.004*[#   8]
    |psi|^2 = 0.024

 k =   0.0000000000  0.0000000000  0.0000000000
==== e(   1) =    -5.49024 eV ==== 
     psi = 0.498*[#   1]+0.498*[#   5]
    |psi|^2 = 0.997
==== e(   2) =     6.55050 eV ==== 
     psi = 0.160*[#   2]+0.160*[#   3]+0.160*[#   4]+0.160*[#   6]+0.160*[#   7]
          +0.160*[#   8]
    |psi|^2 = 0.962
==== e(   3) =     6.55050 eV ==== 
     psi = 0.160*[#   2]+0.160*[#   3]+0.160*[#   4]+0.160*[#   6]+0.160*[#   7]
          +0.160*[#   8]
    |psi|^2 = 0.962
==== e(   4) =     6.55050 eV ==== 
     psi = 0.160*[#   2]+0.160*[#   3]+0.160*[#   4]+0.160*[#   6]+0.160*[#   7]
          +0.160*[#   8]
    |psi|^2 = 0.962
==== e(   5) =     8.99022 eV ==== 
     psi = 0.161*[#   2]+0.161*[#   3]+0.161*[#   4]+0.161*[#   6]+0.161*[#   7]
          +0.161*[#   8]
    |psi|^2 = 0.966
==== e(   6) =     8.99022 eV ==== 
     psi = 0.161*[#   2]+0.161*[#   3]+0.161*[#   4]+0.161*[#   6]+0.161*[#   7]
          +0.161*[#   8]
    |psi|^2 = 0.966
==== e(   7) =     8.99022 eV ==== 
     psi = 0.161*[#   2]+0.161*[#   3]+0.161*[#   4]+0.161*[#   6]+0.161*[#   7]
          +0.161*[#   8]
    |psi|^2 = 0.966
==== e(   8) =     9.88950 eV ==== 
     psi = 0.493*[#   1]+0.493*[#   5]
    |psi|^2 = 0.985
==== e(   9) =    14.19300 eV ==== 
 
    |psi|^2 = 0.000
==== e(  10) =    14.19300 eV ==== 
 
    |psi|^2 = 0.000
==== e(  11) =    14.47557 eV ==== 
     psi = 0.001*[#   1]+0.001*[#   5]
    |psi|^2 = 0.002
==== e(  12) =    17.65479 eV ==== 
     psi = 0.004*[#   2]+0.004*[#   3]+0.004*[#   4]+0.004*[#   6]+0.004*[#   7]
          +0.004*[#   8]
    |psi|^2 = 0.024
==== e(  13) =    17.65479 eV ==== 
     psi = 0.004*[#   2]+0.004*[#   3]+0.004*[#   4]+0.004*[#   6]+0.004*[#   7]
          +0.004*[#   8]
    |psi|^2 = 0.024
==== e(  14) =    17.65479 eV ==== 
     psi = 0.004*[#   2]+0.004*[#   3]+0.004*[#   4]+0.004*[#   6]+0.004*[#   7]
          +0.004*[#   8]
    |psi|^2 = 0.024

 k =   0.0353553391  0.0000000000 -0.0000000000
==== e(   1) =    -5.47923 eV ==== 
     psi = 0.495*[#   1]+0.495*[#   5]+0.001*[#   2]+0.001*[#   3]+0.001*[#   4]
          +0.001*[#   6]+0.001*[#   7]+0.001*[#   8]
    |psi|^2 = 0.997
==== e(   2) =     6.47523 eV ==== 
     psi = 0.157*[#   2]+0.157*[#   3]+0.157*[#   4]+0.157*[#   6]+0.157*[#   7]
          +0.157*[#   8]+0.012*[#   1]+0.012*[#   5]
    |psi|^2 = 0.964
==== e(   3) =     6.49999 eV ==== 
     psi = 0.161*[#   2]+0.161*[#   3]+0.161*[#   4]+0.161*[#   6]+0.161*[#   7]
          +0.161*[#   8]
    |psi|^2 = 0.964
==== e(   4) =     6.49999 eV ==== 
     psi = 0.161*[#   2]+0.161*[#   3]+0.161*[#   4]+0.161*[#   6]+0.161*[#   7]
          +0.161*[#   8]
    |psi|^2 = 0.964
==== e(   5) =     8.96349 eV ==== 
     psi = 0.160*[#   2]+0.160*[#   3]+0.160*[#   4]+0.160*[#   6]+0.160*[#   7]
          +0.160*[#   8]+0.003*[#   1]+0.003*[#   5]
    |psi|^2 = 0.965
==== e(   6) =     9.05440 eV ==== 
     psi = 0.161*[#   2]+0.161*[#   3]+0.161*[#   4]+0.161*[#   6]+0.161*[#   7]
          +0.161*[#   8]
    |psi|^2 = 0.964
==== e(   7) =     9.05440 eV ==== 
     psi = 0.161*[#   2]+0.161*[#   3]+0.161*[#   4]+0.161*[#   6]+0.161*[#   7]
          +0.161*[#   8]
    |psi|^2 = 0.964
==== e(   8) =     9.96291 eV ==== 
     psi = 0.480*[#   1]+0.480*[#   5]+0.004*[#   2]+0.004*[#   3]+0.004*[#   4]
          +0.004*[#   6]+0.004*[#   7]+0.004*[#   8]
    |psi|^2 = 0.985
==== e(   9) =    14.10043 eV ==== 
 
    |psi|^2 = 0.001
==== e(  10) =    14.20517 eV ==== 
 
    |psi|^2 = 0.000
==== e(  11) =    14.52407 eV ==== 
     psi = 0.001*[#   1]+0.001*[#   5]
    |psi|^2 = 0.002
==== e(  12) =    17.67417 eV ==== 
     psi = 0.004*[#   2]+0.004*[#   3]+0.004*[#   4]+0.004*[#   6]+0.004*[#   7]
          +0.004*[#   8]
    |psi|^2 = 0.024
==== e(  13) =    17.67417 eV ==== 
     psi = 0.004*[#   2]+0.004*[#   3]+0.004*[#   4]+0.004*[#   6]+0.004*[#   7]
          +0.004*[#   8]
    |psi|^2 = 0.024
==== e(  14) =    17.72317 eV ==== 
     psi = 0.004*[#   2]+0.004*[#   3]+0.004*[#   4]+0.004*[#   6]+0.004*[#   7]
          +0.004*[#   8]
    |psi|^2 = 0.023

 k =   0.0707106781  0.0000000000 -0.0000000000
==== e(   1) =    -5.44621 eV ==== 
     psi = 0.486*[#   1]+0.486*[#   5]+0.004*[#   2]+0.004*[#   3]+0.004*[#   4]
          +0.004*[#   6]+0.004*[#   7]+0.004*[#   8]
    |psi|^2 = 0.997
==== e(   2) =     6.26758 eV ==== 
     psi = 0.147*[#   2]+0.147*[#   3]+0.147*[#   4]+0.147*[#   6]+0.147*[#   7]
          +0.147*[#   8]+0.041*[#   1]+0.041*[#   5]
    |psi|^2 = 0.966
==== e(   3) =     6.36260 eV ==== 
     psi = 0.161*[#   2]+0.161*[#   3]+0.161*[#   4]+0.161*[#   6]+0.161*[#   7]
          +0.161*[#   8]
    |psi|^2 = 0.967
==== e(   4) =     6.36260 eV ==== 
     psi = 0.161*[#   2]+0.161*[#   3]+0.161*[#   4]+0.161*[#   6]+0.161*[#   7]
          +0.161*[#   8]
    |psi|^2 = 0.967
==== e(   5) =     8.88641 eV ==== 
     psi = 0.157*[#   2]+0.157*[#   3]+0.157*[#   4]+0.157*[#   6]+0.157*[#   7]
          +0.157*[#   8]+0.012*[#   1]+0.012*[#   5]
    |psi|^2 = 0.965
==== e(   6) =     9.23273 eV ==== 
     psi = 0.160*[#   2]+0.160*[#   3]+0.160*[#   4]+0.160*[#   6]+0.160*[#   7]
          +0.160*[#   8]
    |psi|^2 = 0.959
==== e(   7) =     9.23273 eV ==== 
     psi = 0.160*[#   2]+0.160*[#   3]+0.160*[#   4]+0.160*[#   6]+0.160*[#   7]
          +0.160*[#   8]
    |psi|^2 = 0.959
==== e(   8) =    10.16150 eV ==== 
     psi = 0.451*[#   1]+0.451*[#   5]+0.014*[#   2]+0.014*[#   3]+0.014*[#   4]
          +0.014*[#   6]+0.014*[#   7]+0.014*[#   8]
    |psi|^2 = 0.983
==== e(   9) =    13.85400 eV ==== 
 
    |psi|^2 = 0.003
==== e(  10) =    14.24168 eV ==== 
 
    |psi|^2 = 0.000
==== e(  11) =    14.66640 eV ==== 
     psi = 0.001*[#   1]+0.001*[#   5]
    |psi|^2 = 0.002
==== e(  12) =    17.73229 eV ==== 
     psi = 0.004*[#   2]+0.004*[#   3]+0.004*[#   4]+0.004*[#   6]+0.004*[#   7]
          +0.004*[#   8]
    |psi|^2 = 0.024
==== e(  13) =    17.73229 eV ==== 
     psi = 0.004*[#   2]+0.004*[#   3]+0.004*[#   4]+0.004*[#   6]+0.004*[#   7]
          +0.004*[#   8]
    |psi|^2 = 0.024
==== e(  14) =    17.90286 eV ==== 
     psi = 0.003*[#   2]+0.003*[#   3]+0.003*[#   4]+0.003*[#   6]+0.003*[#   7]
          +0.003*[#   8]
    |psi|^2 = 0.019

 k =   0.1060660172 -0.0000000000  0.0000000000
==== e(   1) =    -5.39122 eV ==== 
     psi = 0.471*[#   1]+0.471*[#   5]+0.009*[#   2]+0.009*[#   3]+0.009*[#   4]
          +0.009*[#   6]+0.009*[#   7]+0.009*[#   8]
    |psi|^2 = 0.997
==== e(   2) =     5.96580 eV ==== 
     psi = 0.137*[#   2]+0.137*[#   3]+0.137*[#   4]+0.137*[#   6]+0.137*[#   7]
          +0.137*[#   8]+0.075*[#   1]+0.075*[#   5]
    |psi|^2 = 0.969
==== e(   3) =     6.16790 eV ==== 
     psi = 0.162*[#   2]+0.162*[#   3]+0.162*[#   4]+0.162*[#   6]+0.162*[#   7]
          +0.162*[#   8]
    |psi|^2 = 0.971
==== e(   4) =     6.16790 eV ==== 
     psi = 0.162*[#   2]+0.162*[#   3]+0.162*[#   4]+0.162*[#   6]+0.162*[#   7]
          +0.162*[#   8]
    |psi|^2 = 0.971
==== e(   5) =     8.76717 eV ==== 
     psi = 0.152*[#   2]+0.152*[#   3]+0.152*[#   4]+0.152*[#   6]+0.152*[#   7]
          +0.152*[#   8]+0.026*[#   1]+0.026*[#   5]
    |psi|^2 = 0.964
==== e(   6) =     9.49664 eV ==== 
     psi = 0.159*[#   2]+0.159*[#   3]+0.159*[#   4]+0.159*[#   6]+0.159*[#   7]
          +0.159*[#   8]
    |psi|^2 = 0.952
==== e(   7) =     9.49664 eV ==== 
     psi = 0.159*[#   2]+0.159*[#   3]+0.159*[#   4]+0.159*[#   6]+0.159*[#   7]
          +0.159*[#   8]
    |psi|^2 = 0.952
==== e(   8) =    10.43577 eV ==== 
     psi = 0.415*[#   1]+0.415*[#   5]+0.025*[#   2]+0.025*[#   3]+0.025*[#   4]
          +0.025*[#   6]+0.025*[#   7]+0.025*[#   8]
    |psi|^2 = 0.980
==== e(   9) =    13.52824 eV ==== 
     psi = 0.003*[#   1]+0.003*[#   5]
    |psi|^2 = 0.007
==== e(  10) =    14.30400 eV ==== 
 
    |psi|^2 = 0.000
==== e(  11) =    14.89406 eV ==== 
     psi = 0.001*[#   1]+0.001*[#   5]
    |psi|^2 = 0.002
==== e(  12) =    17.82909 eV ==== 
     psi = 0.004*[#   2]+0.004*[#   3]+0.004*[#   4]+0.004*[#   6]+0.004*[#   7]
          +0.004*[#   8]
    |psi|^2 = 0.023
==== e(  13) =    17.82909 eV ==== 
     psi = 0.004*[#   2]+0.004*[#   3]+0.004*[#   4]+0.004*[#   6]+0.004*[#   7]
          +0.004*[#   8]
    |psi|^2 = 0.023
==== e(  14) =    18.14681 eV ==== 
     psi = 0.002*[#   2]+0.002*[#   3]+0.002*[#   4]+0.002*[#   6]+0.002*[#   7]
          +0.002*[#   8]+0.001*[#   1]+0.001*[#   5]
    |psi|^2 = 0.015

 k =   0.1414213562  0.0000000000 -0.0000000000
==== e(   1) =    -5.31423 eV ==== 
     psi = 0.454*[#   1]+0.454*[#   5]+0.015*[#   2]+0.015*[#   3]+0.015*[#   4]
          +0.015*[#   6]+0.015*[#   7]+0.015*[#   8]
    |psi|^2 = 0.996
==== e(   2) =     5.60443 eV ==== 
     psi = 0.127*[#   2]+0.127*[#   3]+0.127*[#   4]+0.127*[#   6]+0.127*[#   7]
          +0.127*[#   8]+0.105*[#   1]+0.105*[#   5]
    |psi|^2 = 0.972
==== e(   3) =     5.94253 eV ==== 
     psi = 0.163*[#   2]+0.163*[#   3]+0.163*[#   4]+0.163*[#   6]+0.163*[#   7]
          +0.163*[#   8]
    |psi|^2 = 0.975
==== e(   4) =     5.94253 eV ==== 
     psi = 0.163*[#   2]+0.163*[#   3]+0.163*[#   4]+0.163*[#   6]+0.163*[#   7]
          +0.163*[#   8]
    |psi|^2 = 0.975
==== e(   5) =     8.61663 eV ==== 
     psi = 0.146*[#   2]+0.146*[#   3]+0.146*[#   4]+0.146*[#   6]+0.146*[#   7]
          +0.146*[#   8]+0.043*[#   1]+0.043*[#   5]
    |psi|^2 = 0.963
==== e(   6) =     9.81820 eV ==== 
     psi = 0.157*[#   2]+0.157*[#   3]+0.157*[#   4]+0.157*[#   6]+0.157*[#   7]
          +0.157*[#   8]
    |psi|^2 = 0.944
==== e(   7) =     9.81820 eV ==== 
     psi = 0.157*[#   2]+0.157*[#   3]+0.157*[#   4]+0.157*[#   6]+0.157*[#   7]
          +0.157*[#   8]
    |psi|^2 = 0.944
==== e(   8) =    10.71844 eV ==== 
     psi = 0.375*[#   1]+0.375*[#   5]+0.035*[#   2]+0.035*[#   3]+0.035*[#   4]
          +0.035*[#   6]+0.035*[#   7]+0.035*[#   8]
    |psi|^2 = 0.963
==== e(   9) =    13.20130 eV ==== 
     psi = 0.012*[#   1]+0.012*[#   5]
    |psi|^2 = 0.024
==== e(  10) =    14.39693 eV ==== 
 
    |psi|^2 = 0.000
==== e(  11) =    15.19593 eV ==== 
     psi = 0.001*[#   1]+0.001*[#   5]
    |psi|^2 = 0.003
==== e(  12) =    17.96437 eV ==== 
     psi = 0.004*[#   2]+0.004*[#   3]+0.004*[#   4]+0.004*[#   6]+0.004*[#   7]
          +0.004*[#   8]
    |psi|^2 = 0.023
==== e(  13) =    17.96437 eV ==== 
     psi = 0.004*[#   2]+0.004*[#   3]+0.004*[#   4]+0.004*[#   6]+0.004*[#   7]
          +0.004*[#   8]
    |psi|^2 = 0.023
==== e(  14) =    18.41946 eV ==== 
     psi = 0.002*[#   2]+0.002*[#   3]+0.002*[#   4]+0.002*[#   6]+0.002*[#   7]
          +0.002*[#   8]+0.001*[#   1]+0.001*[#   5]
    |psi|^2 = 0.012

 k =   0.1767766953  0.0000000000  0.0000000000
==== e(   1) =    -5.21595 eV ==== 
     psi = 0.435*[#   1]+0.435*[#   5]+0.021*[#   2]+0.021*[#   3]+0.021*[#   4]
          +0.021*[#   6]+0.021*[#   7]+0.021*[#   8]
    |psi|^2 = 0.996
==== e(   2) =     5.20660 eV ==== 
     psi = 0.132*[#   1]+0.132*[#   5]+0.119*[#   2]+0.119*[#   3]+0.119*[#   4]
          +0.119*[#   6]+0.119*[#   7]+0.119*[#   8]
    |psi|^2 = 0.975
==== e(   3) =     5.70334 eV ==== 
     psi = 0.163*[#   2]+0.163*[#   3]+0.163*[#   4]+0.163*[#   6]+0.163*[#   7]
          +0.163*[#   8]
    |psi|^2 = 0.979
==== e(   4) =     5.70334 eV ==== 
     psi = 0.163*[#   2]+0.163*[#   3]+0.163*[#   4]+0.163*[#   6]+0.163*[#   7]
          +0.163*[#   8]
    |psi|^2 = 0.979
==== e(   5) =     8.44580 eV ==== 
     psi = 0.140*[#   2]+0.140*[#   3]+0.140*[#   4]+0.140*[#   6]+0.140*[#   7]
          +0.140*[#   8]+0.061*[#   1]+0.061*[#   5]
    |psi|^2 = 0.961
==== e(   6) =    10.17951 eV ==== 
     psi = 0.156*[#   2]+0.156*[#   3]+0.156*[#   4]+0.156*[#   6]+0.156*[#   7]
          +0.156*[#   8]
    |psi|^2 = 0.935
==== e(   7) =    10.17951 eV ==== 
     psi = 0.156*[#   2]+0.156*[#   3]+0.156*[#   4]+0.156*[#   6]+0.156*[#   7]
          +0.156*[#   8]
    |psi|^2 = 0.935
==== e(   8) =    10.91336 eV ==== 
     psi = 0.320*[#   1]+0.320*[#   5]+0.043*[#   2]+0.043*[#   3]+0.043*[#   4]
          +0.043*[#   6]+0.043*[#   7]+0.043*[#   8]
    |psi|^2 = 0.898
==== e(   9) =    12.97342 eV ==== 
     psi = 0.041*[#   1]+0.041*[#   5]+0.001*[#   2]+0.001*[#   3]+0.001*[#   4]
          +0.001*[#   6]+0.001*[#   7]+0.001*[#   8]
    |psi|^2 = 0.090
==== e(  10) =    14.50941 eV ==== 
 
    |psi|^2 = 0.000
==== e(  11) =    15.55937 eV ==== 
     psi = 0.001*[#   1]+0.001*[#   5]
    |psi|^2 = 0.003
==== e(  12) =    18.13553 eV ==== 
     psi = 0.004*[#   2]+0.004*[#   3]+0.004*[#   4]+0.004*[#   6]+0.004*[#   7]
          +0.004*[#   8]
    |psi|^2 = 0.022
==== e(  13) =    18.13553 eV ==== 
     psi = 0.004*[#   2]+0.004*[#   3]+0.004*[#   4]+0.004*[#   6]+0.004*[#   7]
          +0.004*[#   8]
    |psi|^2 = 0.022
==== e(  14) =    18.69560 eV ==== 
     psi = 0.002*[#   1]+0.002*[#   5]+0.001*[#   2]+0.001*[#   3]+0.001*[#   4]
          +0.001*[#   6]+0.001*[#   7]+0.001*[#   8]
    |psi|^2 = 0.009

 k =   0.2121320344 -0.0000000000  0.0000000000
==== e(   1) =    -5.09576 eV ==== 
     psi = 0.415*[#   1]+0.415*[#   5]+0.028*[#   2]+0.028*[#   3]+0.028*[#   4]
          +0.028*[#   6]+0.028*[#   7]+0.028*[#   8]
    |psi|^2 = 0.996
==== e(   2) =     4.78626 eV ==== 
     psi = 0.154*[#   1]+0.154*[#   5]+0.112*[#   2]+0.112*[#   3]+0.112*[#   4]
          +0.112*[#   6]+0.112*[#   7]+0.112*[#   8]
    |psi|^2 = 0.978
==== e(   3) =     5.46351 eV ==== 
     psi = 0.164*[#   2]+0.164*[#   3]+0.164*[#   4]+0.164*[#   6]+0.164*[#   7]
          +0.164*[#   8]
    |psi|^2 = 0.982
==== e(   4) =     5.46351 eV ==== 
     psi = 0.164*[#   2]+0.164*[#   3]+0.164*[#   4]+0.164*[#   6]+0.164*[#   7]
          +0.164*[#   8]
    |psi|^2 = 0.982
==== e(   5) =     8.26423 eV ==== 
     psi = 0.133*[#   2]+0.133*[#   3]+0.133*[#   4]+0.133*[#   6]+0.133*[#   7]
          +0.133*[#   8]+0.079*[#   1]+0.079*[#   5]
    |psi|^2 = 0.959
==== e(   6) =    10.56620 eV ==== 
     psi = 0.154*[#   2]+0.154*[#   3]+0.154*[#   4]+0.154*[#   6]+0.154*[#   7]
          +0.154*[#   8]
    |psi|^2 = 0.925
==== e(   7) =    10.56620 eV ==== 
     psi = 0.154*[#   2]+0.154*[#   3]+0.154*[#   4]+0.154*[#   6]+0.154*[#   7]
          +0.154*[#   8]
    |psi|^2 = 0.925
==== e(   8) =    10.90614 eV ==== 
     psi = 0.244*[#   1]+0.244*[#   5]+0.044*[#   2]+0.044*[#   3]+0.044*[#   4]
          +0.044*[#   6]+0.044*[#   7]+0.044*[#   8]
    |psi|^2 = 0.750
==== e(   9) =    12.97187 eV ==== 
     psi = 0.096*[#   1]+0.096*[#   5]+0.007*[#   2]+0.007*[#   3]+0.007*[#   4]
          +0.007*[#   6]+0.007*[#   7]+0.007*[#   8]
    |psi|^2 = 0.237
==== e(  10) =    14.64293 eV ==== 
 
    |psi|^2 = 0.000
==== e(  11) =    15.97433 eV ==== 
     psi = 0.001*[#   1]+0.001*[#   5]
    |psi|^2 = 0.003
==== e(  12) =    18.34508 eV ==== 
     psi = 0.004*[#   2]+0.004*[#   3]+0.004*[#   4]+0.004*[#   6]+0.004*[#   7]
          +0.004*[#   8]
    |psi|^2 = 0.022
==== e(  13) =    18.34508 eV ==== 
     psi = 0.004*[#   2]+0.004*[#   3]+0.004*[#   4]+0.004*[#   6]+0.004*[#   7]
          +0.004*[#   8]
    |psi|^2 = 0.022
==== e(  14) =    18.97777 eV ==== 
     psi = 0.002*[#   1]+0.002*[#   5]
    |psi|^2 = 0.007

 k =   0.2474873734  0.0000000000 -0.0000000000
==== e(   1) =    -4.95465 eV ==== 
     psi = 0.396*[#   1]+0.396*[#   5]+0.034*[#   2]+0.034*[#   3]+0.034*[#   4]
          +0.034*[#   6]+0.034*[#   7]+0.034*[#   8]
    |psi|^2 = 0.996
==== e(   2) =     4.35158 eV ==== 
     psi = 0.172*[#   1]+0.172*[#   5]+0.106*[#   2]+0.106*[#   3]+0.106*[#   4]
          +0.106*[#   6]+0.106*[#   7]+0.106*[#   8]
    |psi|^2 = 0.981
==== e(   3) =     5.22798 eV ==== 
     psi = 0.164*[#   2]+0.164*[#   3]+0.164*[#   4]+0.164*[#   6]+0.164*[#   7]
          +0.164*[#   8]
    |psi|^2 = 0.985
==== e(   4) =     5.22798 eV ==== 
     psi = 0.164*[#   2]+0.164*[#   3]+0.164*[#   4]+0.164*[#   6]+0.164*[#   7]
          +0.164*[#   8]
    |psi|^2 = 0.985
==== e(   5) =     8.08011 eV ==== 
     psi = 0.127*[#   2]+0.127*[#   3]+0.127*[#   4]+0.127*[#   6]+0.127*[#   7]
          +0.127*[#   8]+0.097*[#   1]+0.097*[#   5]
    |psi|^2 = 0.957
==== e(   6) =    10.68399 eV ==== 
     psi = 0.180*[#   1]+0.180*[#   5]+0.041*[#   2]+0.041*[#   3]+0.041*[#   4]
          +0.041*[#   6]+0.041*[#   7]+0.041*[#   8]
    |psi|^2 = 0.605
==== e(   7) =    10.97188 eV ==== 
     psi = 0.152*[#   2]+0.152*[#   3]+0.152*[#   4]+0.152*[#   6]+0.152*[#   7]
          +0.152*[#   8]
    |psi|^2 = 0.913
==== e(   8) =    10.97188 eV ==== 
     psi = 0.152*[#   2]+0.152*[#   3]+0.152*[#   4]+0.152*[#   6]+0.152*[#   7]
          +0.152*[#   8]
    |psi|^2 = 0.913
==== e(   9) =    13.21461 eV ==== 
     psi = 0.142*[#   1]+0.142*[#   5]+0.016*[#   2]+0.016*[#   3]+0.016*[#   4]
          +0.016*[#   6]+0.016*[#   7]+0.016*[#   8]
    |psi|^2 = 0.383
==== e(  10) =    14.80072 eV ==== 
 
    |psi|^2 = 0.000
==== e(  11) =    16.43008 eV ==== 
     psi = 0.001*[#   1]+0.001*[#   5]
    |psi|^2 = 0.003
==== e(  12) =    18.58390 eV ==== 
     psi = 0.004*[#   2]+0.004*[#   3]+0.004*[#   4]+0.004*[#   6]+0.004*[#   7]
          +0.004*[#   8]
    |psi|^2 = 0.021
==== e(  13) =    18.58390 eV ==== 
     psi = 0.004*[#   2]+0.004*[#   3]+0.004*[#   4]+0.004*[#   6]+0.004*[#   7]
          +0.004*[#   8]
    |psi|^2 = 0.021
==== e(  14) =    19.26920 eV ==== 
     psi = 0.001*[#   1]+0.001*[#   5]
    |psi|^2 = 0.005

 k =   0.2828427125  0.0000000000 -0.0000000000
==== e(   1) =    -4.79175 eV ==== 
     psi = 0.379*[#   1]+0.379*[#   5]+0.040*[#   2]+0.040*[#   3]+0.040*[#   4]
          +0.040*[#   6]+0.040*[#   7]+0.040*[#   8]
    |psi|^2 = 0.996
==== e(   2) =     3.90872 eV ==== 
     psi = 0.187*[#   1]+0.187*[#   5]+0.101*[#   2]+0.101*[#   3]+0.101*[#   4]
          +0.101*[#   6]+0.101*[#   7]+0.101*[#   8]
    |psi|^2 = 0.983
==== e(   3) =     5.00337 eV ==== 
     psi = 0.164*[#   2]+0.164*[#   3]+0.164*[#   4]+0.164*[#   6]+0.164*[#   7]
          +0.164*[#   8]
    |psi|^2 = 0.987
==== e(   4) =     5.00337 eV ==== 
     psi = 0.164*[#   2]+0.164*[#   3]+0.164*[#   4]+0.164*[#   6]+0.164*[#   7]
          +0.164*[#   8]
    |psi|^2 = 0.987
==== e(   5) =     7.89987 eV ==== 
     psi = 0.121*[#   2]+0.121*[#   3]+0.121*[#   4]+0.121*[#   6]+0.121*[#   7]
          +0.121*[#   8]+0.113*[#   1]+0.113*[#   5]
    |psi|^2 = 0.954
==== e(   6) =    10.34282 eV ==== 
     psi = 0.146*[#   1]+0.146*[#   5]+0.039*[#   2]+0.039*[#   3]+0.039*[#   4]
          +0.039*[#   6]+0.039*[#   7]+0.039*[#   8]
    |psi|^2 = 0.526
==== e(   7) =    11.39337 eV ==== 
     psi = 0.150*[#   2]+0.150*[#   3]+0.150*[#   4]+0.150*[#   6]+0.150*[#   7]
          +0.150*[#   8]
    |psi|^2 = 0.900
==== e(   8) =    11.39337 eV ==== 
     psi = 0.150*[#   2]+0.150*[#   3]+0.150*[#   4]+0.150*[#   6]+0.150*[#   7]
          +0.150*[#   8]
    |psi|^2 = 0.900
==== e(   9) =    13.61046 eV ==== 
     psi = 0.162*[#   1]+0.162*[#   5]+0.023*[#   2]+0.023*[#   3]+0.023*[#   4]
          +0.023*[#   6]+0.023*[#   7]+0.023*[#   8]
    |psi|^2 = 0.463
==== e(  10) =    14.98275 eV ==== 
 
    |psi|^2 = 0.000
==== e(  11) =    16.91891 eV ==== 
     psi = 0.001*[#   1]+0.001*[#   5]
    |psi|^2 = 0.003
==== e(  12) =    18.85912 eV ==== 
     psi = 0.004*[#   2]+0.004*[#   3]+0.004*[#   4]+0.004*[#   6]+0.004*[#   7]
          +0.004*[#   8]
    |psi|^2 = 0.022
==== e(  13) =    18.85912 eV ==== 
     psi = 0.004*[#   2]+0.004*[#   3]+0.004*[#   4]+0.004*[#   6]+0.004*[#   7]
          +0.004*[#   8]
    |psi|^2 = 0.022
==== e(  14) =    19.57700 eV ==== 
     psi = 0.001*[#   1]+0.001*[#   5]
    |psi|^2 = 0.004

 k =   0.3181980515  0.0000000000 -0.0000000000
==== e(   1) =    -4.60812 eV ==== 
     psi = 0.363*[#   1]+0.363*[#   5]+0.045*[#   2]+0.045*[#   3]+0.045*[#   4]
          +0.045*[#   6]+0.045*[#   7]+0.045*[#   8]
    |psi|^2 = 0.996
==== e(   2) =     3.46044 eV ==== 
     psi = 0.201*[#   1]+0.201*[#   5]+0.097*[#   2]+0.097*[#   3]+0.097*[#   4]
          +0.097*[#   6]+0.097*[#   7]+0.097*[#   8]
    |psi|^2 = 0.985
==== e(   3) =     4.79103 eV ==== 
     psi = 0.165*[#   2]+0.165*[#   3]+0.165*[#   4]+0.165*[#   6]+0.165*[#   7]
          +0.165*[#   8]
    |psi|^2 = 0.989
==== e(   4) =     4.79103 eV ==== 
     psi = 0.165*[#   2]+0.165*[#   3]+0.165*[#   4]+0.165*[#   6]+0.165*[#   7]
          +0.165*[#   8]
    |psi|^2 = 0.989
==== e(   5) =     7.72777 eV ==== 
     psi = 0.127*[#   1]+0.127*[#   5]+0.116*[#   2]+0.116*[#   3]+0.116*[#   4]
          +0.116*[#   6]+0.116*[#   7]+0.116*[#   8]
    |psi|^2 = 0.951
==== e(   6) =     9.95586 eV ==== 
     psi = 0.131*[#   1]+0.131*[#   5]+0.039*[#   2]+0.039*[#   3]+0.039*[#   4]
          +0.039*[#   6]+0.039*[#   7]+0.039*[#   8]
    |psi|^2 = 0.498
==== e(   7) =    11.82563 eV ==== 
     psi = 0.147*[#   2]+0.147*[#   3]+0.147*[#   4]+0.147*[#   6]+0.147*[#   7]
          +0.147*[#   8]
    |psi|^2 = 0.885
==== e(   8) =    11.82563 eV ==== 
     psi = 0.147*[#   2]+0.147*[#   3]+0.147*[#   4]+0.147*[#   6]+0.147*[#   7]
          +0.147*[#   8]
    |psi|^2 = 0.885
==== e(   9) =    14.08237 eV ==== 
     psi = 0.165*[#   1]+0.165*[#   5]+0.027*[#   2]+0.027*[#   3]+0.027*[#   4]
          +0.027*[#   6]+0.027*[#   7]+0.027*[#   8]
    |psi|^2 = 0.492
==== e(  10) =    15.18870 eV ==== 
 
    |psi|^2 = 0.000
==== e(  11) =    17.43148 eV ==== 
     psi = 0.001*[#   1]+0.001*[#   5]
    |psi|^2 = 0.003
==== e(  12) =    19.15600 eV ==== 
     psi = 0.004*[#   2]+0.004*[#   3]+0.004*[#   4]+0.004*[#   6]+0.004*[#   7]
          +0.004*[#   8]
    |psi|^2 = 0.023
==== e(  13) =    19.15600 eV ==== 
     psi = 0.004*[#   2]+0.004*[#   3]+0.004*[#   4]+0.004*[#   6]+0.004*[#   7]
          +0.004*[#   8]
    |psi|^2 = 0.023
==== e(  14) =    19.89790 eV ==== 
 
    |psi|^2 = 0.003

 k =   0.3535533906  0.0000000000  0.0000000000
==== e(   1) =    -4.40351 eV ==== 
     psi = 0.349*[#   1]+0.349*[#   5]+0.050*[#   2]+0.050*[#   3]+0.050*[#   4]
          +0.050*[#   6]+0.050*[#   7]+0.050*[#   8]
    |psi|^2 = 0.995
==== e(   2) =     3.00912 eV ==== 
     psi = 0.212*[#   1]+0.212*[#   5]+0.094*[#   2]+0.094*[#   3]+0.094*[#   4]
          +0.094*[#   6]+0.094*[#   7]+0.094*[#   8]
    |psi|^2 = 0.987
==== e(   3) =     4.59380 eV ==== 
     psi = 0.165*[#   2]+0.165*[#   3]+0.165*[#   4]+0.165*[#   6]+0.165*[#   7]
          +0.165*[#   8]
    |psi|^2 = 0.991
==== e(   4) =     4.59380 eV ==== 
     psi = 0.165*[#   2]+0.165*[#   3]+0.165*[#   4]+0.165*[#   6]+0.165*[#   7]
          +0.165*[#   8]
    |psi|^2 = 0.991
==== e(   5) =     7.56893 eV ==== 
     psi = 0.140*[#   1]+0.140*[#   5]+0.111*[#   2]+0.111*[#   3]+0.111*[#   4]
          +0.111*[#   6]+0.111*[#   7]+0.111*[#   8]
    |psi|^2 = 0.947
==== e(   6) =     9.56911 eV ==== 
     psi = 0.126*[#   1]+0.126*[#   5]+0.041*[#   2]+0.041*[#   3]+0.041*[#   4]
          +0.041*[#   6]+0.041*[#   7]+0.041*[#   8]
    |psi|^2 = 0.499
==== e(   7) =    12.26793 eV ==== 
     psi = 0.145*[#   2]+0.145*[#   3]+0.145*[#   4]+0.145*[#   6]+0.145*[#   7]
          +0.145*[#   8]
    |psi|^2 = 0.868
==== e(   8) =    12.26793 eV ==== 
     psi = 0.145*[#   2]+0.145*[#   3]+0.145*[#   4]+0.145*[#   6]+0.145*[#   7]
          +0.145*[#   8]
    |psi|^2 = 0.868
==== e(   9) =    14.59284 eV ==== 
     psi = 0.159*[#   1]+0.159*[#   5]+0.029*[#   2]+0.029*[#   3]+0.029*[#   4]
          +0.029*[#   6]+0.029*[#   7]+0.029*[#   8]
    |psi|^2 = 0.491
==== e(  10) =    15.41908 eV ==== 
 
    |psi|^2 = 0.000
==== e(  11) =    17.95829 eV ==== 
     psi = 0.001*[#   1]+0.001*[#   5]
    |psi|^2 = 0.003
==== e(  12) =    19.46741 eV ==== 
     psi = 0.004*[#   2]+0.004*[#   3]+0.004*[#   4]+0.004*[#   6]+0.004*[#   7]
          +0.004*[#   8]
    |psi|^2 = 0.027
==== e(  13) =    19.46741 eV ==== 
     psi = 0.004*[#   2]+0.004*[#   3]+0.004*[#   4]+0.004*[#   6]+0.004*[#   7]
          +0.004*[#   8]
    |psi|^2 = 0.027
==== e(  14) =    20.25274 eV ==== 
 
    |psi|^2 = 0.002

 k =   0.3889087297  0.0000000000 -0.0000000000
==== e(   1) =    -4.17849 eV ==== 
     psi = 0.337*[#   1]+0.337*[#   5]+0.054*[#   2]+0.054*[#   3]+0.054*[#   4]
          +0.054*[#   6]+0.054*[#   7]+0.054*[#   8]
    |psi|^2 = 0.995
==== e(   2) =     2.55656 eV ==== 
     psi = 0.222*[#   1]+0.222*[#   5]+0.091*[#   2]+0.091*[#   3]+0.091*[#   4]
          +0.091*[#   6]+0.091*[#   7]+0.091*[#   8]
    |psi|^2 = 0.988
==== e(   3) =     4.41267 eV ==== 
     psi = 0.165*[#   2]+0.165*[#   3]+0.165*[#   4]+0.165*[#   6]+0.165*[#   7]
          +0.165*[#   8]
    |psi|^2 = 0.992
==== e(   4) =     4.41267 eV ==== 
     psi = 0.165*[#   2]+0.165*[#   3]+0.165*[#   4]+0.165*[#   6]+0.165*[#   7]
          +0.165*[#   8]
    |psi|^2 = 0.992
==== e(   5) =     7.42584 eV ==== 
     psi = 0.151*[#   1]+0.151*[#   5]+0.107*[#   2]+0.107*[#   3]+0.107*[#   4]
          +0.107*[#   6]+0.107*[#   7]+0.107*[#   8]
    |psi|^2 = 0.943
==== e(   6) =     9.19620 eV ==== 
     psi = 0.127*[#   1]+0.127*[#   5]+0.044*[#   2]+0.044*[#   3]+0.044*[#   4]
          +0.044*[#   6]+0.044*[#   7]+0.044*[#   8]
    |psi|^2 = 0.518
==== e(   7) =    12.71787 eV ==== 
     psi = 0.141*[#   2]+0.141*[#   3]+0.141*[#   4]+0.141*[#   6]+0.141*[#   7]
          +0.141*[#   8]
    |psi|^2 = 0.849
==== e(   8) =    12.71787 eV ==== 
     psi = 0.141*[#   2]+0.141*[#   3]+0.141*[#   4]+0.141*[#   6]+0.141*[#   7]
          +0.141*[#   8]
    |psi|^2 = 0.849
==== e(   9) =    15.12289 eV ==== 
     psi = 0.148*[#   1]+0.148*[#   5]+0.029*[#   2]+0.029*[#   3]+0.029*[#   4]
          +0.029*[#   6]+0.029*[#   7]+0.029*[#   8]
    |psi|^2 = 0.473
==== e(  10) =    15.67356 eV ==== 
 
    |psi|^2 = 0.000
==== e(  11) =    18.48776 eV ==== 
     psi = 0.002*[#   1]+0.002*[#   5]
    |psi|^2 = 0.004
==== e(  12) =    19.76511 eV ==== 
     psi = 0.006*[#   2]+0.006*[#   3]+0.006*[#   4]+0.006*[#   6]+0.006*[#   7]
          +0.006*[#   8]
    |psi|^2 = 0.035
==== e(  13) =    19.76511 eV ==== 
     psi = 0.006*[#   2]+0.006*[#   3]+0.006*[#   4]+0.006*[#   6]+0.006*[#   7]
          +0.006*[#   8]
    |psi|^2 = 0.035
==== e(  14) =    20.63790 eV ==== 
 
    |psi|^2 = 0.002

 k =   0.4242640687 -0.0000000000  0.0000000000
==== e(   1) =    -3.93346 eV ==== 
     psi = 0.326*[#   1]+0.326*[#   5]+0.057*[#   2]+0.057*[#   3]+0.057*[#   4]
          +0.057*[#   6]+0.057*[#   7]+0.057*[#   8]
    |psi|^2 = 0.995
==== e(   2) =     2.10431 eV ==== 
     psi = 0.230*[#   1]+0.230*[#   5]+0.088*[#   2]+0.088*[#   3]+0.088*[#   4]
          +0.088*[#   6]+0.088*[#   7]+0.088*[#   8]
    |psi|^2 = 0.990
==== e(   3) =     4.24869 eV ==== 
     psi = 0.165*[#   2]+0.165*[#   3]+0.165*[#   4]+0.165*[#   6]+0.165*[#   7]
          +0.165*[#   8]
    |psi|^2 = 0.993
==== e(   4) =     4.24869 eV ==== 
     psi = 0.165*[#   2]+0.165*[#   3]+0.165*[#   4]+0.165*[#   6]+0.165*[#   7]
          +0.165*[#   8]
    |psi|^2 = 0.993
==== e(   5) =     7.30095 eV ==== 
     psi = 0.159*[#   1]+0.159*[#   5]+0.103*[#   2]+0.103*[#   3]+0.103*[#   4]
          +0.103*[#   6]+0.103*[#   7]+0.103*[#   8]
    |psi|^2 = 0.938
==== e(   6) =     8.84618 eV ==== 
     psi = 0.131*[#   1]+0.131*[#   5]+0.048*[#   2]+0.048*[#   3]+0.048*[#   4]
          +0.048*[#   6]+0.048*[#   7]+0.048*[#   8]
    |psi|^2 = 0.547
==== e(   7) =    13.17428 eV ==== 
     psi = 0.138*[#   2]+0.138*[#   3]+0.138*[#   4]+0.138*[#   6]+0.138*[#   7]
          +0.138*[#   8]
    |psi|^2 = 0.828
==== e(   8) =    13.17428 eV ==== 
     psi = 0.138*[#   2]+0.138*[#   3]+0.138*[#   4]+0.138*[#   6]+0.138*[#   7]
          +0.138*[#   8]
    |psi|^2 = 0.828
==== e(   9) =    15.66170 eV ==== 
     psi = 0.136*[#   1]+0.136*[#   5]+0.029*[#   2]+0.029*[#   3]+0.029*[#   4]
          +0.029*[#   6]+0.029*[#   7]+0.029*[#   8]
    |psi|^2 = 0.443
==== e(  10) =    15.95208 eV ==== 
 
    |psi|^2 = 0.000
==== e(  11) =    19.00424 eV ==== 
     psi = 0.002*[#   1]+0.002*[#   5]
    |psi|^2 = 0.005
==== e(  12) =    19.99795 eV ==== 
     psi = 0.009*[#   2]+0.009*[#   3]+0.009*[#   4]+0.009*[#   6]+0.009*[#   7]
          +0.009*[#   8]
    |psi|^2 = 0.053
==== e(  13) =    19.99795 eV ==== 
     psi = 0.009*[#   2]+0.009*[#   3]+0.009*[#   4]+0.009*[#   6]+0.009*[#   7]
          +0.009*[#   8]
    |psi|^2 = 0.053
==== e(  14) =    21.05660 eV ==== 
 
    |psi|^2 = 0.002

 k =   0.4596194078 -0.0000000000  0.0000000000
==== e(   1) =    -3.66935 eV ==== 
     psi = 0.316*[#   1]+0.316*[#   5]+0.060*[#   2]+0.060*[#   3]+0.060*[#   4]
          +0.060*[#   6]+0.060*[#   7]+0.060*[#   8]
    |psi|^2 = 0.995
==== e(   2) =     1.65327 eV ==== 
     psi = 0.238*[#   1]+0.238*[#   5]+0.086*[#   2]+0.086*[#   3]+0.086*[#   4]
          +0.086*[#   6]+0.086*[#   7]+0.086*[#   8]
    |psi|^2 = 0.991
==== e(   3) =     4.10262 eV ==== 
     psi = 0.166*[#   2]+0.166*[#   3]+0.166*[#   4]+0.166*[#   6]+0.166*[#   7]
          +0.166*[#   8]
    |psi|^2 = 0.994
==== e(   4) =     4.10262 eV ==== 
     psi = 0.166*[#   2]+0.166*[#   3]+0.166*[#   4]+0.166*[#   6]+0.166*[#   7]
          +0.166*[#   8]
    |psi|^2 = 0.994
==== e(   5) =     7.19471 eV ==== 
     psi = 0.166*[#   1]+0.166*[#   5]+0.100*[#   2]+0.100*[#   3]+0.100*[#   4]
          +0.100*[#   6]+0.100*[#   7]+0.100*[#   8]
    |psi|^2 = 0.932
==== e(   6) =     8.52303 eV ==== 
     psi = 0.137*[#   1]+0.137*[#   5]+0.052*[#   2]+0.052*[#   3]+0.052*[#   4]
          +0.052*[#   6]+0.052*[#   7]+0.052*[#   8]
    |psi|^2 = 0.584
==== e(   7) =    13.63119 eV ==== 
     psi = 0.134*[#   2]+0.134*[#   3]+0.134*[#   4]+0.134*[#   6]+0.134*[#   7]
          +0.134*[#   8]
    |psi|^2 = 0.805
==== e(   8) =    13.63119 eV ==== 
     psi = 0.134*[#   2]+0.134*[#   3]+0.134*[#   4]+0.134*[#   6]+0.134*[#   7]
          +0.134*[#   8]
    |psi|^2 = 0.805
==== e(   9) =    16.20332 eV ==== 
     psi = 0.123*[#   1]+0.123*[#   5]+0.027*[#   2]+0.027*[#   3]+0.027*[#   4]
          +0.027*[#   6]+0.027*[#   7]+0.027*[#   8]
    |psi|^2 = 0.407
==== e(  10) =    16.25324 eV ==== 
 
    |psi|^2 = 0.000
==== e(  11) =    19.48540 eV ==== 
     psi = 0.004*[#   1]+0.004*[#   5]
    |psi|^2 = 0.008
==== e(  12) =    20.07870 eV ==== 
     psi = 0.014*[#   2]+0.014*[#   3]+0.014*[#   4]+0.014*[#   6]+0.014*[#   7]
          +0.014*[#   8]
    |psi|^2 = 0.085
==== e(  13) =    20.07870 eV ==== 
     psi = 0.014*[#   2]+0.014*[#   3]+0.014*[#   4]+0.014*[#   6]+0.014*[#   7]
          +0.014*[#   8]
    |psi|^2 = 0.085
==== e(  14) =    21.51113 eV ==== 
 
    |psi|^2 = 0.002

 k =   0.4949747468  0.0000000000 -0.0000000000
==== e(   1) =    -3.38587 eV ==== 
     psi = 0.308*[#   1]+0.308*[#   5]+0.063*[#   2]+0.063*[#   3]+0.063*[#   4]
          +0.063*[#   6]+0.063*[#   7]+0.063*[#   8]
    |psi|^2 = 0.994
==== e(   2) =     1.20614 eV ==== 
     psi = 0.244*[#   1]+0.244*[#   5]+0.084*[#   2]+0.084*[#   3]+0.084*[#   4]
          +0.084*[#   6]+0.084*[#   7]+0.084*[#   8]
    |psi|^2 = 0.991
==== e(   3) =     3.97505 eV ==== 
     psi = 0.166*[#   2]+0.166*[#   3]+0.166*[#   4]+0.166*[#   6]+0.166*[#   7]
          +0.166*[#   8]
    |psi|^2 = 0.994
==== e(   4) =     3.97505 eV ==== 
     psi = 0.166*[#   2]+0.166*[#   3]+0.166*[#   4]+0.166*[#   6]+0.166*[#   7]
          +0.166*[#   8]
    |psi|^2 = 0.994
==== e(   5) =     7.11104 eV ==== 
     psi = 0.172*[#   1]+0.172*[#   5]+0.097*[#   2]+0.097*[#   3]+0.097*[#   4]
          +0.097*[#   6]+0.097*[#   7]+0.097*[#   8]
    |psi|^2 = 0.924
==== e(   6) =     8.23108 eV ==== 
     psi = 0.144*[#   1]+0.144*[#   5]+0.056*[#   2]+0.056*[#   3]+0.056*[#   4]
          +0.056*[#   6]+0.056*[#   7]+0.056*[#   8]
    |psi|^2 = 0.624
==== e(   7) =    14.09787 eV ==== 
     psi = 0.130*[#   2]+0.130*[#   3]+0.130*[#   4]+0.130*[#   6]+0.130*[#   7]
          +0.130*[#   8]
    |psi|^2 = 0.782
==== e(   8) =    14.09787 eV ==== 
     psi = 0.130*[#   2]+0.130*[#   3]+0.130*[#   4]+0.130*[#   6]+0.130*[#   7]
          +0.130*[#   8]
    |psi|^2 = 0.782
==== e(   9) =    16.57959 eV ==== 
 
    |psi|^2 = 0.000
==== e(  10) =    16.73944 eV ==== 
     psi = 0.109*[#   1]+0.109*[#   5]+0.025*[#   2]+0.025*[#   3]+0.025*[#   4]
          +0.025*[#   6]+0.025*[#   7]+0.025*[#   8]
    |psi|^2 = 0.366
==== e(  11) =    19.89960 eV ==== 
     psi = 0.006*[#   1]+0.006*[#   5]
    |psi|^2 = 0.013
==== e(  12) =    19.94329 eV ==== 
     psi = 0.021*[#   2]+0.021*[#   3]+0.021*[#   4]+0.021*[#   6]+0.021*[#   7]
          +0.021*[#   8]
    |psi|^2 = 0.125
==== e(  13) =    19.94329 eV ==== 
     psi = 0.021*[#   2]+0.021*[#   3]+0.021*[#   4]+0.021*[#   6]+0.021*[#   7]
          +0.021*[#   8]
    |psi|^2 = 0.125
==== e(  14) =    22.00316 eV ==== 
 
    |psi|^2 = 0.003

 k =   0.5303300859  0.0000000000 -0.0000000000
==== e(   1) =    -3.08384 eV ==== 
     psi = 0.301*[#   1]+0.301*[#   5]+0.065*[#   2]+0.065*[#   3]+0.065*[#   4]
          +0.065*[#   6]+0.065*[#   7]+0.065*[#   8]
    |psi|^2 = 0.994
==== e(   2) =     0.76407 eV ==== 
     psi = 0.250*[#   1]+0.250*[#   5]+0.082*[#   2]+0.082*[#   3]+0.082*[#   4]
          +0.082*[#   6]+0.082*[#   7]+0.082*[#   8]
    |psi|^2 = 0.992
==== e(   3) =     3.86646 eV ==== 
     psi = 0.166*[#   2]+0.166*[#   3]+0.166*[#   4]+0.166*[#   6]+0.166*[#   7]
          +0.166*[#   8]
    |psi|^2 = 0.995
==== e(   4) =     3.86646 eV ==== 
     psi = 0.166*[#   2]+0.166*[#   3]+0.166*[#   4]+0.166*[#   6]+0.166*[#   7]
          +0.166*[#   8]
    |psi|^2 = 0.995
==== e(   5) =     7.05134 eV ==== 
     psi = 0.176*[#   1]+0.176*[#   5]+0.094*[#   2]+0.094*[#   3]+0.094*[#   4]
          +0.094*[#   6]+0.094*[#   7]+0.094*[#   8]
    |psi|^2 = 0.916
==== e(   6) =     7.97405 eV ==== 
     psi = 0.151*[#   1]+0.151*[#   5]+0.061*[#   2]+0.061*[#   3]+0.061*[#   4]
          +0.061*[#   6]+0.061*[#   7]+0.061*[#   8]
    |psi|^2 = 0.665
==== e(   7) =    14.57053 eV ==== 
     psi = 0.127*[#   2]+0.127*[#   3]+0.127*[#   4]+0.127*[#   6]+0.127*[#   7]
          +0.127*[#   8]
    |psi|^2 = 0.760
==== e(   8) =    14.57053 eV ==== 
     psi = 0.127*[#   2]+0.127*[#   3]+0.127*[#   4]+0.127*[#   6]+0.127*[#   7]
          +0.127*[#   8]
    |psi|^2 = 0.760
==== e(   9) =    16.92974 eV ==== 
 
    |psi|^2 = 0.000
==== e(  10) =    17.26686 eV ==== 
     psi = 0.096*[#   1]+0.096*[#   5]+0.022*[#   2]+0.022*[#   3]+0.022*[#   4]
          +0.022*[#   6]+0.022*[#   7]+0.022*[#   8]
    |psi|^2 = 0.323
==== e(  11) =    19.62306 eV ==== 
     psi = 0.027*[#   2]+0.027*[#   3]+0.027*[#   4]+0.027*[#   6]+0.027*[#   7]
          +0.027*[#   8]
    |psi|^2 = 0.160
==== e(  12) =    19.62306 eV ==== 
     psi = 0.027*[#   2]+0.027*[#   3]+0.027*[#   4]+0.027*[#   6]+0.027*[#   7]
          +0.027*[#   8]
    |psi|^2 = 0.160
==== e(  13) =    20.20689 eV ==== 
     psi = 0.009*[#   1]+0.009*[#   5]
    |psi|^2 = 0.022
==== e(  14) =    21.71914 eV ==== 
 
    |psi|^2 = 0.000

 k =   0.5656854249  0.0000000000 -0.0000000000
==== e(   1) =    -2.76398 eV ==== 
     psi = 0.295*[#   1]+0.295*[#   5]+0.067*[#   2]+0.067*[#   3]+0.067*[#   4]
          +0.067*[#   6]+0.067*[#   7]+0.067*[#   8]
    |psi|^2 = 0.994
==== e(   2) =     0.32809 eV ==== 
     psi = 0.256*[#   1]+0.256*[#   5]+0.080*[#   2]+0.080*[#   3]+0.080*[#   4]
          +0.080*[#   6]+0.080*[#   7]+0.080*[#   8]
    |psi|^2 = 0.992
==== e(   3) =     3.77719 eV ==== 
     psi = 0.166*[#   2]+0.166*[#   3]+0.166*[#   4]+0.166*[#   6]+0.166*[#   7]
          +0.166*[#   8]
    |psi|^2 = 0.995
==== e(   4) =     3.77719 eV ==== 
     psi = 0.166*[#   2]+0.166*[#   3]+0.166*[#   4]+0.166*[#   6]+0.166*[#   7]
          +0.166*[#   8]
    |psi|^2 = 0.995
==== e(   5) =     7.01612 eV ==== 
     psi = 0.178*[#   1]+0.178*[#   5]+0.091*[#   2]+0.091*[#   3]+0.091*[#   4]
          +0.091*[#   6]+0.091*[#   7]+0.091*[#   8]
    |psi|^2 = 0.905
==== e(   6) =     7.74558 eV ==== 
     psi = 0.157*[#   1]+0.157*[#   5]+0.065*[#   2]+0.065*[#   3]+0.065*[#   4]
          +0.065*[#   6]+0.065*[#   7]+0.065*[#   8]
    |psi|^2 = 0.706
==== e(   7) =    15.04430 eV ==== 
     psi = 0.123*[#   2]+0.123*[#   3]+0.123*[#   4]+0.123*[#   6]+0.123*[#   7]
          +0.123*[#   8]
    |psi|^2 = 0.741
==== e(   8) =    15.04430 eV ==== 
     psi = 0.123*[#   2]+0.123*[#   3]+0.123*[#   4]+0.123*[#   6]+0.123*[#   7]
          +0.123*[#   8]
    |psi|^2 = 0.741
==== e(   9) =    17.30360 eV ==== 
 
    |psi|^2 = 0.000
==== e(  10) =    17.78134 eV ==== 
     psi = 0.083*[#   1]+0.083*[#   5]+0.019*[#   2]+0.019*[#   3]+0.019*[#   4]
          +0.019*[#   6]+0.019*[#   7]+0.019*[#   8]
    |psi|^2 = 0.280
==== e(  11) =    19.19832 eV ==== 
     psi = 0.031*[#   2]+0.031*[#   3]+0.031*[#   4]+0.031*[#   6]+0.031*[#   7]
          +0.031*[#   8]
    |psi|^2 = 0.185
==== e(  12) =    19.19832 eV ==== 
     psi = 0.031*[#   2]+0.031*[#   3]+0.031*[#   4]+0.031*[#   6]+0.031*[#   7]
          +0.031*[#   8]
    |psi|^2 = 0.185
==== e(  13) =    20.36840 eV ==== 
     psi = 0.014*[#   1]+0.014*[#   5]+0.001*[#   2]+0.001*[#   3]+0.001*[#   4]
          +0.001*[#   6]+0.001*[#   7]+0.001*[#   8]
    |psi|^2 = 0.036
==== e(  14) =    21.14029 eV ==== 
 
    |psi|^2 = 0.000

 k =   0.6010407640  0.0000000000 -0.0000000000
==== e(   1) =    -2.42708 eV ==== 
     psi = 0.289*[#   1]+0.289*[#   5]+0.069*[#   2]+0.069*[#   3]+0.069*[#   4]
          +0.069*[#   6]+0.069*[#   7]+0.069*[#   8]
    |psi|^2 = 0.994
==== e(   2) =    -0.09938 eV ==== 
     psi = 0.261*[#   1]+0.261*[#   5]+0.078*[#   2]+0.078*[#   3]+0.078*[#   4]
          +0.078*[#   6]+0.078*[#   7]+0.078*[#   8]
    |psi|^2 = 0.993
[...]
          +0.109*[#   6]+0.109*[#   7]+0.109*[#   8]
    |psi|^2 = 0.950
==== e(   6) =     9.55768 eV ==== 
     psi = 0.159*[#   2]+0.159*[#   3]+0.159*[#   4]+0.159*[#   6]+0.159*[#   7]
          +0.159*[#   8]
    |psi|^2 = 0.954
==== e(   7) =     9.86833 eV ==== 
     psi = 0.130*[#   2]+0.130*[#   3]+0.130*[#   4]+0.130*[#   6]+0.130*[#   7]
          +0.130*[#   8]+0.062*[#   1]+0.062*[#   5]
    |psi|^2 = 0.905
==== e(   8) =    12.04749 eV ==== 
     psi = 0.170*[#   1]+0.170*[#   5]+0.072*[#   2]+0.072*[#   3]+0.072*[#   4]
          +0.072*[#   6]+0.072*[#   7]+0.072*[#   8]
    |psi|^2 = 0.768
==== e(   9) =    12.80137 eV ==== 
 
    |psi|^2 = 0.002
==== e(  10) =    14.52923 eV ==== 
     psi = 0.041*[#   1]+0.041*[#   5]+0.018*[#   2]+0.018*[#   3]+0.018*[#   4]
          +0.018*[#   6]+0.018*[#   7]+0.018*[#   8]
    |psi|^2 = 0.189
==== e(  11) =    16.26462 eV ==== 
     psi = 0.002*[#   2]+0.002*[#   3]+0.002*[#   4]+0.002*[#   6]+0.002*[#   7]
          +0.002*[#   8]+0.002*[#   1]+0.002*[#   5]
    |psi|^2 = 0.017
==== e(  12) =    17.65337 eV ==== 
     psi = 0.003*[#   1]+0.003*[#   5]
    |psi|^2 = 0.010
==== e(  13) =    18.80338 eV ==== 
     psi = 0.003*[#   2]+0.003*[#   3]+0.003*[#   4]+0.003*[#   6]+0.003*[#   7]
          +0.003*[#   8]
    |psi|^2 = 0.018
==== e(  14) =    20.97903 eV ==== 
     psi = 0.002*[#   2]+0.002*[#   3]+0.002*[#   4]+0.002*[#   6]+0.002*[#   7]
          +0.002*[#   8]
    |psi|^2 = 0.011

 k =   0.1546796084 -0.0000000000  0.1546796084
==== e(   1) =    -5.07290 eV ==== 
     psi = 0.414*[#   1]+0.414*[#   5]+0.028*[#   2]+0.028*[#   3]+0.028*[#   4]
          +0.028*[#   6]+0.028*[#   7]+0.028*[#   8]
    |psi|^2 = 0.996
==== e(   2) =     4.23877 eV ==== 
     psi = 0.123*[#   2]+0.123*[#   3]+0.123*[#   4]+0.123*[#   6]+0.123*[#   7]
          +0.123*[#   8]+0.122*[#   1]+0.122*[#   5]
    |psi|^2 = 0.982
==== e(   3) =     5.15772 eV ==== 
     psi = 0.156*[#   2]+0.156*[#   3]+0.156*[#   4]+0.156*[#   6]+0.156*[#   7]
          +0.156*[#   8]+0.024*[#   1]+0.024*[#   5]
    |psi|^2 = 0.982
==== e(   4) =     6.32697 eV ==== 
     psi = 0.162*[#   2]+0.162*[#   3]+0.162*[#   4]+0.162*[#   6]+0.162*[#   7]
          +0.162*[#   8]
    |psi|^2 = 0.974
==== e(   5) =     9.42552 eV ==== 
     psi = 0.159*[#   2]+0.159*[#   3]+0.159*[#   4]+0.159*[#   6]+0.159*[#   7]
          +0.159*[#   8]
    |psi|^2 = 0.957
==== e(   6) =     9.47261 eV ==== 
     psi = 0.144*[#   1]+0.144*[#   5]+0.111*[#   2]+0.111*[#   3]+0.111*[#   4]
          +0.111*[#   6]+0.111*[#   7]+0.111*[#   8]
    |psi|^2 = 0.956
==== e(   7) =     9.70192 eV ==== 
     psi = 0.135*[#   2]+0.135*[#   3]+0.135*[#   4]+0.135*[#   6]+0.135*[#   7]
          +0.135*[#   8]+0.055*[#   1]+0.055*[#   5]
    |psi|^2 = 0.918
==== e(   8) =    11.87662 eV ==== 
     psi = 0.201*[#   1]+0.201*[#   5]+0.076*[#   2]+0.076*[#   3]+0.076*[#   4]
          +0.076*[#   6]+0.076*[#   7]+0.076*[#   8]
    |psi|^2 = 0.858
==== e(   9) =    12.95933 eV ==== 
 
    |psi|^2 = 0.003
==== e(  10) =    14.23028 eV ==== 
     psi = 0.025*[#   1]+0.025*[#   5]+0.009*[#   2]+0.009*[#   3]+0.009*[#   4]
          +0.009*[#   6]+0.009*[#   7]+0.009*[#   8]
    |psi|^2 = 0.103
==== e(  11) =    15.94777 eV ==== 
     psi = 0.002*[#   1]+0.002*[#   5]+0.001*[#   2]+0.001*[#   3]+0.001*[#   4]
          +0.001*[#   6]+0.001*[#   7]+0.001*[#   8]
    |psi|^2 = 0.012
==== e(  12) =    17.58275 eV ==== 
     psi = 0.003*[#   1]+0.003*[#   5]
    |psi|^2 = 0.011
==== e(  13) =    18.50075 eV ==== 
     psi = 0.003*[#   2]+0.003*[#   3]+0.003*[#   4]+0.003*[#   6]+0.003*[#   7]
          +0.003*[#   8]
    |psi|^2 = 0.019
==== e(  14) =    20.37956 eV ==== 
     psi = 0.002*[#   2]+0.002*[#   3]+0.002*[#   4]+0.002*[#   6]+0.002*[#   7]
          +0.002*[#   8]
    |psi|^2 = 0.012

 k =   0.1325825215  0.0000000000  0.1325825215
==== e(   1) =    -5.18307 eV ==== 
     psi = 0.430*[#   1]+0.430*[#   5]+0.023*[#   2]+0.023*[#   3]+0.023*[#   4]
          +0.023*[#   6]+0.023*[#   7]+0.023*[#   8]
    |psi|^2 = 0.996
==== e(   2) =     4.65289 eV ==== 
     psi = 0.127*[#   2]+0.127*[#   3]+0.127*[#   4]+0.127*[#   6]+0.127*[#   7]
          +0.127*[#   8]+0.108*[#   1]+0.108*[#   5]
    |psi|^2 = 0.980
==== e(   3) =     5.45220 eV ==== 
     psi = 0.157*[#   2]+0.157*[#   3]+0.157*[#   4]+0.157*[#   6]+0.157*[#   7]
          +0.157*[#   8]+0.017*[#   1]+0.017*[#   5]
    |psi|^2 = 0.980
==== e(   4) =     6.39181 eV ==== 
     psi = 0.162*[#   2]+0.162*[#   3]+0.162*[#   4]+0.162*[#   6]+0.162*[#   7]
          +0.162*[#   8]
    |psi|^2 = 0.972
==== e(   5) =     9.31066 eV ==== 
     psi = 0.160*[#   2]+0.160*[#   3]+0.160*[#   4]+0.160*[#   6]+0.160*[#   7]
          +0.160*[#   8]
    |psi|^2 = 0.959
==== e(   6) =     9.42739 eV ==== 
     psi = 0.136*[#   1]+0.136*[#   5]+0.115*[#   2]+0.115*[#   3]+0.115*[#   4]
          +0.115*[#   6]+0.115*[#   7]+0.115*[#   8]
    |psi|^2 = 0.959
==== e(   7) =     9.54592 eV ==== 
     psi = 0.139*[#   2]+0.139*[#   3]+0.139*[#   4]+0.139*[#   6]+0.139*[#   7]
          +0.139*[#   8]+0.047*[#   1]+0.047*[#   5]
    |psi|^2 = 0.929
==== e(   8) =    11.58847 eV ==== 
     psi = 0.236*[#   1]+0.236*[#   5]+0.075*[#   2]+0.075*[#   3]+0.075*[#   4]
          +0.075*[#   6]+0.075*[#   7]+0.075*[#   8]
    |psi|^2 = 0.922
==== e(   9) =    13.14509 eV ==== 
 
    |psi|^2 = 0.003
==== e(  10) =    14.07809 eV ==== 
     psi = 0.012*[#   1]+0.012*[#   5]+0.003*[#   2]+0.003*[#   3]+0.003*[#   4]
          +0.003*[#   6]+0.003*[#   7]+0.003*[#   8]
    |psi|^2 = 0.043
==== e(  11) =    15.62660 eV ==== 
     psi = 0.001*[#   1]+0.001*[#   5]
    |psi|^2 = 0.008
==== e(  12) =    17.53775 eV ==== 
     psi = 0.003*[#   1]+0.003*[#   5]+0.001*[#   2]+0.001*[#   3]+0.001*[#   4]
          +0.001*[#   6]+0.001*[#   7]+0.001*[#   8]
    |psi|^2 = 0.013
==== e(  13) =    18.25348 eV ==== 
     psi = 0.003*[#   2]+0.003*[#   3]+0.003*[#   4]+0.003*[#   6]+0.003*[#   7]
          +0.003*[#   8]
    |psi|^2 = 0.021
==== e(  14) =    19.79488 eV ==== 
     psi = 0.002*[#   2]+0.002*[#   3]+0.002*[#   4]+0.002*[#   6]+0.002*[#   7]
          +0.002*[#   8]
    |psi|^2 = 0.014

 k =   0.1104854346 -0.0000000000  0.1104854346
==== e(   1) =    -5.27626 eV ==== 
     psi = 0.447*[#   1]+0.447*[#   5]+0.017*[#   2]+0.017*[#   3]+0.017*[#   4]
          +0.017*[#   6]+0.017*[#   7]+0.017*[#   8]
    |psi|^2 = 0.996
==== e(   2) =     5.07043 eV ==== 
     psi = 0.132*[#   2]+0.132*[#   3]+0.132*[#   4]+0.132*[#   6]+0.132*[#   7]
          +0.132*[#   8]+0.092*[#   1]+0.092*[#   5]
    |psi|^2 = 0.977
==== e(   3) =     5.73336 eV ==== 
     psi = 0.159*[#   2]+0.159*[#   3]+0.159*[#   4]+0.159*[#   6]+0.159*[#   7]
          +0.159*[#   8]+0.011*[#   1]+0.011*[#   5]
    |psi|^2 = 0.977
==== e(   4) =     6.44457 eV ==== 
     psi = 0.162*[#   2]+0.162*[#   3]+0.162*[#   4]+0.162*[#   6]+0.162*[#   7]
          +0.162*[#   8]
    |psi|^2 = 0.969
==== e(   5) =     9.21245 eV ==== 
     psi = 0.160*[#   2]+0.160*[#   3]+0.160*[#   4]+0.160*[#   6]+0.160*[#   7]
          +0.160*[#   8]
    |psi|^2 = 0.961
==== e(   6) =     9.37421 eV ==== 
     psi = 0.120*[#   1]+0.120*[#   5]+0.120*[#   2]+0.120*[#   3]+0.120*[#   4]
          +0.120*[#   6]+0.120*[#   7]+0.120*[#   8]
    |psi|^2 = 0.961
==== e(   7) =     9.40284 eV ==== 
     psi = 0.144*[#   2]+0.144*[#   3]+0.144*[#   4]+0.144*[#   6]+0.144*[#   7]
          +0.144*[#   8]+0.038*[#   1]+0.038*[#   5]
    |psi|^2 = 0.938
==== e(   8) =    11.21698 eV ==== 
     psi = 0.275*[#   1]+0.275*[#   5]+0.068*[#   2]+0.068*[#   3]+0.068*[#   4]
          +0.068*[#   6]+0.068*[#   7]+0.068*[#   8]
    |psi|^2 = 0.955
==== e(   9) =    13.35849 eV ==== 
 
    |psi|^2 = 0.003
==== e(  10) =    14.03591 eV ==== 
     psi = 0.005*[#   1]+0.005*[#   5]
    |psi|^2 = 0.015
==== e(  11) =    15.31847 eV ==== 
     psi = 0.001*[#   1]+0.001*[#   5]
    |psi|^2 = 0.006
==== e(  12) =    17.52632 eV ==== 
     psi = 0.002*[#   1]+0.002*[#   5]+0.002*[#   2]+0.002*[#   3]+0.002*[#   4]
          +0.002*[#   6]+0.002*[#   7]+0.002*[#   8]
    |psi|^2 = 0.015
==== e(  13) =    18.05794 eV ==== 
     psi = 0.004*[#   2]+0.004*[#   3]+0.004*[#   4]+0.004*[#   6]+0.004*[#   7]
          +0.004*[#   8]
    |psi|^2 = 0.022
==== e(  14) =    19.25244 eV ==== 
     psi = 0.003*[#   2]+0.003*[#   3]+0.003*[#   4]+0.003*[#   6]+0.003*[#   7]
          +0.003*[#   8]
    |psi|^2 = 0.015

 k =   0.0883883476  0.0000000000  0.0883883476
==== e(   1) =    -5.35294 eV ==== 
     psi = 0.463*[#   1]+0.463*[#   5]+0.012*[#   2]+0.012*[#   3]+0.012*[#   4]
          +0.012*[#   6]+0.012*[#   7]+0.012*[#   8]
    |psi|^2 = 0.996
==== e(   2) =     5.48070 eV ==== 
     psi = 0.138*[#   2]+0.138*[#   3]+0.138*[#   4]+0.138*[#   6]+0.138*[#   7]
          +0.138*[#   8]+0.074*[#   1]+0.074*[#   5]
    |psi|^2 = 0.975
==== e(   3) =     5.99308 eV ==== 
     psi = 0.160*[#   2]+0.160*[#   3]+0.160*[#   4]+0.160*[#   6]+0.160*[#   7]
          +0.160*[#   8]+0.006*[#   1]+0.006*[#   5]
    |psi|^2 = 0.974
==== e(   4) =     6.48496 eV ==== 
     psi = 0.161*[#   2]+0.161*[#   3]+0.161*[#   4]+0.161*[#   6]+0.161*[#   7]
          +0.161*[#   8]
    |psi|^2 = 0.967
==== e(   5) =     9.13291 eV ==== 
     psi = 0.160*[#   2]+0.160*[#   3]+0.160*[#   4]+0.160*[#   6]+0.160*[#   7]
          +0.160*[#   8]
    |psi|^2 = 0.963
==== e(   6) =     9.27486 eV ==== 
     psi = 0.149*[#   2]+0.149*[#   3]+0.149*[#   4]+0.149*[#   6]+0.149*[#   7]
          +0.149*[#   8]+0.028*[#   1]+0.028*[#   5]
    |psi|^2 = 0.947
==== e(   7) =     9.31209 eV ==== 
     psi = 0.129*[#   2]+0.129*[#   3]+0.129*[#   4]+0.129*[#   6]+0.129*[#   7]
          +0.129*[#   8]+0.095*[#   1]+0.095*[#   5]
    |psi|^2 = 0.961
==== e(   8) =    10.81507 eV ==== 
     psi = 0.321*[#   1]+0.321*[#   5]+0.054*[#   2]+0.054*[#   3]+0.054*[#   4]
          +0.054*[#   6]+0.054*[#   7]+0.054*[#   8]
    |psi|^2 = 0.970
==== e(   9) =    13.58092 eV ==== 
 
    |psi|^2 = 0.003
==== e(  10) =    14.05922 eV ==== 
     psi = 0.001*[#   1]+0.001*[#   5]
    |psi|^2 = 0.005
==== e(  11) =    15.03904 eV ==== 
     psi = 0.001*[#   1]+0.001*[#   5]
    |psi|^2 = 0.004
==== e(  12) =    17.53950 eV ==== 
     psi = 0.002*[#   2]+0.002*[#   3]+0.002*[#   4]+0.002*[#   6]+0.002*[#   7]
          +0.002*[#   8]+0.002*[#   1]+0.002*[#   5]
    |psi|^2 = 0.018
==== e(  13) =    17.90944 eV ==== 
     psi = 0.004*[#   2]+0.004*[#   3]+0.004*[#   4]+0.004*[#   6]+0.004*[#   7]
          +0.004*[#   8]
    |psi|^2 = 0.023
==== e(  14) =    18.75287 eV ==== 
     psi = 0.003*[#   2]+0.003*[#   3]+0.003*[#   4]+0.003*[#   6]+0.003*[#   7]
          +0.003*[#   8]
    |psi|^2 = 0.017

 k =   0.0662912607  0.0000000000  0.0662912607
==== e(   1) =    -5.41293 eV ==== 
     psi = 0.477*[#   1]+0.477*[#   5]+0.007*[#   2]+0.007*[#   3]+0.007*[#   4]
          +0.007*[#   6]+0.007*[#   7]+0.007*[#   8]
    |psi|^2 = 0.997
==== e(   2) =     5.86895 eV ==== 
     psi = 0.144*[#   2]+0.144*[#   3]+0.144*[#   4]+0.144*[#   6]+0.144*[#   7]
          +0.144*[#   8]+0.053*[#   1]+0.053*[#   5]
    |psi|^2 = 0.971
==== e(   3) =     6.21769 eV ==== 
     psi = 0.161*[#   2]+0.161*[#   3]+0.161*[#   4]+0.161*[#   6]+0.161*[#   7]
          +0.161*[#   8]+0.002*[#   1]+0.002*[#   5]
    |psi|^2 = 0.970
==== e(   4) =     6.51466 eV ==== 
     psi = 0.161*[#   2]+0.161*[#   3]+0.161*[#   4]+0.161*[#   6]+0.161*[#   7]
          +0.161*[#   8]
    |psi|^2 = 0.965
==== e(   5) =     9.06982 eV ==== 
     psi = 0.161*[#   2]+0.161*[#   3]+0.161*[#   4]+0.161*[#   6]+0.161*[#   7]
          +0.161*[#   8]
    |psi|^2 = 0.964
==== e(   6) =     9.16070 eV ==== 
     psi = 0.153*[#   2]+0.153*[#   3]+0.153*[#   4]+0.153*[#   6]+0.153*[#   7]
          +0.153*[#   8]+0.018*[#   1]+0.018*[#   5]
    |psi|^2 = 0.954
==== e(   7) =     9.23475 eV ==== 
     psi = 0.141*[#   2]+0.141*[#   3]+0.141*[#   4]+0.141*[#   6]+0.141*[#   7]
          +0.141*[#   8]+0.059*[#   1]+0.059*[#   5]
    |psi|^2 = 0.962
==== e(   8) =    10.43638 eV ==== 
     psi = 0.379*[#   1]+0.379*[#   5]+0.036*[#   2]+0.036*[#   3]+0.036*[#   4]
          +0.036*[#   6]+0.036*[#   7]+0.036*[#   8]
    |psi|^2 = 0.977
==== e(   9) =    13.80010 eV ==== 
 
    |psi|^2 = 0.003
==== e(  10) =    14.10549 eV ==== 
 
    |psi|^2 = 0.002
==== e(  11) =    14.80353 eV ==== 
     psi = 0.001*[#   1]+0.001*[#   5]
    |psi|^2 = 0.003
==== e(  12) =    17.57167 eV ==== 
     psi = 0.003*[#   2]+0.003*[#   3]+0.003*[#   4]+0.003*[#   6]+0.003*[#   7]
          +0.003*[#   8]
    |psi|^2 = 0.020
==== e(  13) =    17.79441 eV ==== 
     psi = 0.004*[#   2]+0.004*[#   3]+0.004*[#   4]+0.004*[#   6]+0.004*[#   7]
          +0.004*[#   8]
    |psi|^2 = 0.023
==== e(  14) =    18.31656 eV ==== 
     psi = 0.003*[#   2]+0.003*[#   3]+0.003*[#   4]+0.003*[#   6]+0.003*[#   7]
          +0.003*[#   8]
    |psi|^2 = 0.020

 k =   0.0441941738  0.0000000000  0.0441941738
==== e(   1) =    -5.45585 eV ==== 
     psi = 0.488*[#   1]+0.488*[#   5]+0.003*[#   2]+0.003*[#   3]+0.003*[#   4]
          +0.003*[#   6]+0.003*[#   7]+0.003*[#   8]
    |psi|^2 = 0.997
==== e(   2) =     6.20966 eV ==== 
     psi = 0.151*[#   2]+0.151*[#   3]+0.151*[#   4]+0.151*[#   6]+0.151*[#   7]
          +0.151*[#   8]+0.030*[#   1]+0.030*[#   5]
    |psi|^2 = 0.967
==== e(   3) =     6.39527 eV ==== 
     psi = 0.161*[#   2]+0.161*[#   3]+0.161*[#   4]+0.161*[#   6]+0.161*[#   7]
          +0.161*[#   8]
    |psi|^2 = 0.966
==== e(   4) =     6.53492 eV ==== 
     psi = 0.161*[#   2]+0.161*[#   3]+0.161*[#   4]+0.161*[#   6]+0.161*[#   7]
          +0.161*[#   8]
    |psi|^2 = 0.964
==== e(   5) =     9.02560 eV ==== 
     psi = 0.161*[#   2]+0.161*[#   3]+0.161*[#   4]+0.161*[#   6]+0.161*[#   7]
          +0.161*[#   8]
    |psi|^2 = 0.965
==== e(   6) =     9.07068 eV ==== 
     psi = 0.157*[#   2]+0.157*[#   3]+0.157*[#   4]+0.157*[#   6]+0.157*[#   7]
          +0.157*[#   8]+0.009*[#   1]+0.009*[#   5]
    |psi|^2 = 0.960
==== e(   7) =     9.13712 eV ==== 
     psi = 0.153*[#   2]+0.153*[#   3]+0.153*[#   4]+0.153*[#   6]+0.153*[#   7]
          +0.153*[#   8]+0.021*[#   1]+0.021*[#   5]
    |psi|^2 = 0.962
==== e(   8) =    10.13438 eV ==== 
     psi = 0.441*[#   1]+0.441*[#   5]+0.017*[#   2]+0.017*[#   3]+0.017*[#   4]
          +0.017*[#   6]+0.017*[#   7]+0.017*[#   8]
    |psi|^2 = 0.982
==== e(   9) =    13.99870 eV ==== 
 
    |psi|^2 = 0.002
==== e(  10) =    14.14939 eV ==== 
 
    |psi|^2 = 0.001
==== e(  11) =    14.62499 eV ==== 
     psi = 0.001*[#   1]+0.001*[#   5]
    |psi|^2 = 0.003
==== e(  12) =    17.61067 eV ==== 
     psi = 0.004*[#   2]+0.004*[#   3]+0.004*[#   4]+0.004*[#   6]+0.004*[#   7]
          +0.004*[#   8]
    |psi|^2 = 0.022
==== e(  13) =    17.71601 eV ==== 
     psi = 0.004*[#   2]+0.004*[#   3]+0.004*[#   4]+0.004*[#   6]+0.004*[#   7]
          +0.004*[#   8]
    |psi|^2 = 0.024
==== e(  14) =    17.96783 eV ==== 
     psi = 0.004*[#   2]+0.004*[#   3]+0.004*[#   4]+0.004*[#   6]+0.004*[#   7]
          +0.004*[#   8]
    |psi|^2 = 0.022

 k =   0.0220970869  0.0000000000  0.0220970869
==== e(   1) =    -5.48164 eV ==== 
     psi = 0.496*[#   1]+0.496*[#   5]
    |psi|^2 = 0.997
==== e(   2) =     6.45706 eV ==== 
     psi = 0.158*[#   2]+0.158*[#   3]+0.158*[#   4]+0.158*[#   6]+0.158*[#   7]
          +0.158*[#   8]+0.009*[#   1]+0.009*[#   5]
    |psi|^2 = 0.964
==== e(   3) =     6.51042 eV ==== 
     psi = 0.161*[#   2]+0.161*[#   3]+0.161*[#   4]+0.161*[#   6]+0.161*[#   7]
          +0.161*[#   8]
    |psi|^2 = 0.964
==== e(   4) =     6.54666 eV ==== 
     psi = 0.160*[#   2]+0.160*[#   3]+0.160*[#   4]+0.160*[#   6]+0.160*[#   7]
          +0.160*[#   8]
    |psi|^2 = 0.963
==== e(   5) =     8.99907 eV ==== 
     psi = 0.161*[#   2]+0.161*[#   3]+0.161*[#   4]+0.161*[#   6]+0.161*[#   7]
          +0.161*[#   8]
    |psi|^2 = 0.965
==== e(   6) =     9.01120 eV ==== 
     psi = 0.160*[#   2]+0.160*[#   3]+0.160*[#   4]+0.160*[#   6]+0.160*[#   7]
          +0.160*[#   8]+0.002*[#   1]+0.002*[#   5]
    |psi|^2 = 0.964
==== e(   7) =     9.03696 eV ==== 
     psi = 0.160*[#   2]+0.160*[#   3]+0.160*[#   4]+0.160*[#   6]+0.160*[#   7]
          +0.160*[#   8]+0.002*[#   1]+0.002*[#   5]
    |psi|^2 = 0.964
==== e(   8) =     9.94935 eV ==== 
     psi = 0.481*[#   1]+0.481*[#   5]+0.004*[#   2]+0.004*[#   3]+0.004*[#   4]
          +0.004*[#   6]+0.004*[#   7]+0.004*[#   8]
    |psi|^2 = 0.985
==== e(   9) =    14.14076 eV ==== 
 
    |psi|^2 = 0.000
==== e(  10) =    14.18161 eV ==== 
 
    |psi|^2 = 0.000
==== e(  11) =    14.51349 eV ==== 
     psi = 0.001*[#   1]+0.001*[#   5]
    |psi|^2 = 0.002
==== e(  12) =    17.64252 eV ==== 
     psi = 0.004*[#   2]+0.004*[#   3]+0.004*[#   4]+0.004*[#   6]+0.004*[#   7]
          +0.004*[#   8]
    |psi|^2 = 0.024
==== e(  13) =    17.66997 eV ==== 
     psi = 0.004*[#   2]+0.004*[#   3]+0.004*[#   4]+0.004*[#   6]+0.004*[#   7]
          +0.004*[#   8]
    |psi|^2 = 0.024
==== e(  14) =    17.73669 eV ==== 
     psi = 0.004*[#   2]+0.004*[#   3]+0.004*[#   4]+0.004*[#   6]+0.004*[#   7]
          +0.004*[#   8]
    |psi|^2 = 0.024

 k =   0.0000000000  0.0000000000  0.0000000000
==== e(   1) =    -5.49024 eV ==== 
     psi = 0.498*[#   1]+0.498*[#   5]
    |psi|^2 = 0.997
==== e(   2) =     6.55050 eV ==== 
     psi = 0.160*[#   2]+0.160*[#   3]+0.160*[#   4]+0.160*[#   6]+0.160*[#   7]
          +0.160*[#   8]
    |psi|^2 = 0.962
==== e(   3) =     6.55050 eV ==== 
     psi = 0.160*[#   2]+0.160*[#   3]+0.160*[#   4]+0.160*[#   6]+0.160*[#   7]
          +0.160*[#   8]
    |psi|^2 = 0.962
==== e(   4) =     6.55050 eV ==== 
     psi = 0.160*[#   2]+0.160*[#   3]+0.160*[#   4]+0.160*[#   6]+0.160*[#   7]
          +0.160*[#   8]
    |psi|^2 = 0.962
==== e(   5) =     8.99022 eV ==== 
     psi = 0.161*[#   2]+0.161*[#   3]+0.161*[#   4]+0.161*[#   6]+0.161*[#   7]
          +0.161*[#   8]
    |psi|^2 = 0.966
==== e(   6) =     8.99022 eV ==== 
     psi = 0.161*[#   2]+0.161*[#   3]+0.161*[#   4]+0.161*[#   6]+0.161*[#   7]
          +0.161*[#   8]
    |psi|^2 = 0.966
==== e(   7) =     8.99022 eV ==== 
     psi = 0.161*[#   2]+0.161*[#   3]+0.161*[#   4]+0.161*[#   6]+0.161*[#   7]
          +0.161*[#   8]
    |psi|^2 = 0.966
==== e(   8) =     9.88950 eV ==== 
     psi = 0.493*[#   1]+0.493*[#   5]
    |psi|^2 = 0.985
==== e(   9) =    14.19300 eV ==== 
 
    |psi|^2 = 0.000
==== e(  10) =    14.19300 eV ==== 
 
    |psi|^2 = 0.000
==== e(  11) =    14.47557 eV ==== 
     psi = 0.001*[#   1]+0.001*[#   5]
    |psi|^2 = 0.002
==== e(  12) =    17.65479 eV ==== 
     psi = 0.004*[#   2]+0.004*[#   3]+0.004*[#   4]+0.004*[#   6]+0.004*[#   7]
          +0.004*[#   8]
    |psi|^2 = 0.024
==== e(  13) =    17.65479 eV ==== 
     psi = 0.004*[#   2]+0.004*[#   3]+0.004*[#   4]+0.004*[#   6]+0.004*[#   7]
          +0.004*[#   8]
    |psi|^2 = 0.024
==== e(  14) =    17.65479 eV ==== 
     psi = 0.004*[#   2]+0.004*[#   3]+0.004*[#   4]+0.004*[#   6]+0.004*[#   7]
          +0.004*[#   8]
    |psi|^2 = 0.024

Lowdin Charges: 

     Atom #   1: total charge =   3.9554, s =  1.1032, 
     Atom #   1: total charge =   3.9554, p =  2.8522, pz=  0.9507, px=  0.9507, py=  0.9507, 
     Atom #   2: total charge =   3.9554, s =  1.1032, 
     Atom #   2: total charge =   3.9554, p =  2.8522, pz=  0.9507, px=  0.9507, py=  0.9507, 
     Spilling Parameter:   0.0111
 
     PROJWFC      :      3.00s CPU      3.11s WALL

 
   This run was terminated on:   5:10:50  17Jul2024            

=------------------------------------------------------------------------------=
   JOB DONE.
=------------------------------------------------------------------------------=
Warning: ieee_invalid is signaling
Warning: ieee_divide_by_zero is signaling
Warning: ieee_inexact is signaling
FORTRAN STOP
