ANIMSTEPS    6
CRYSTAL
PRIMVEC
    2.715000001    2.715000001    0.000000000
    0.000000000    2.715000001    2.715000001
    2.715000001    0.000000000    2.715000001
PRIMCOORD    1
      2   1
   Si     0.00000   0.00000   0.00000   0.01337  -0.01714   0.06729
   Si     1.35750   1.35750   1.35750   0.01337  -0.01714   0.06729
PRIMCOORD    2
      2   1
   Si     0.00000   0.00000   0.00000  -0.04198   0.05259   0.02173
   Si     1.35750   1.35750   1.35750  -0.04198   0.05259   0.02173
PRIMCOORD    3
      2   1
   Si     0.00000   0.00000   0.00000  -0.05531  -0.04405  -0.00023
   Si     1.35750   1.35750   1.35750  -0.05531  -0.04405  -0.00023
PRIMCOORD    4
      2   1
   Si     0.00000   0.00000   0.00000   0.00000   0.00000  -0.07071
   Si     1.35750   1.35750   1.35750   0.00000  -0.00000   0.07071
PRIMCOORD    5
      2   1
   Si     0.00000   0.00000   0.00000  -0.06708  -0.02236  -0.00000
   Si     1.35750   1.35750   1.35750   0.06708   0.02236  -0.00000
PRIMCOORD    6
      2   1
   Si     0.00000   0.00000   0.00000   0.02236  -0.06708   0.00000
   Si     1.35750   1.35750   1.35750  -0.02236   0.06708   0.00000
